                               Psi4 1.3.2 release

  ==> Input File <==

--------------------------------------------------------------------------
molecule {
0 1
Cl   -1.457500    0.878700   -0.049100
Cl    1.486100    0.849400   -0.027200
 C   -0.000800   -0.139500   -0.009700
 H   -0.030700   -0.724500    0.935800
 H    0.003000   -0.863900   -0.849800
}
set {
  geom_maxiter 400
  g_convergence GAU
  dynamic_level 1
}
memory 15GB
set_num_threads(4)
psi4_io.set_default_path("/scratch/bdw2292/Psi4-CH2Cl2")
for _ in range(1):
  try:
    set opt_coordinates both
    optimize('mp2/6-31G*')
    break
  except OptimizationConvergenceError:
    break
  else:
    try:
      set opt_coordinates cartesian
      optimize('mp2/6-31G*')
      break
    except OptimizationConvergenceError:
      pass
clean()
--------------------------------------------------------------------------

    Molecular point group: c1
  Charge       = 0
  Multiplicity = 1
  Basis Set: 6-31G*
    Blend: 6-31G*
  Basis Set: (6-31G* AUX)
    Blend: CC-PVDZ-JKFIT
  @DF-RHF Final Energy:  -957.98214795919216
    Total Energy =                       -957.9821479591921616
  Basis Set: (6-31G* AUX)
    Blend: CC-PVDZ-RI
    Molecular point group: c1
  Basis Set: 6-31G*
    Blend: 6-31G*
  Basis Set: (6-31G* AUX)
    Blend: CC-PVDZ-JKFIT
  Basis Set: (6-31G* AUX)
    Blend: CC-PVDZ-JKFIT
	 Reference Energy          =    -957.9821479591921616 [Eh]
	 Singles Energy            =      -0.0000000000000000 [Eh]
	 Same-Spin Energy          =      -0.1072279839317315 [Eh]
	 Opposite-Spin Energy      =      -0.3094284683210298 [Eh]
	 Correlation Energy        =      -0.4166564522527613 [Eh]
	 Total Energy              =    -958.3988044114448712 [Eh]
	 SCS Total Energy          =    -958.3892047824879228 [Eh]
  @DF-RHF Final Energy:  -957.98474350819515
    Total Energy =                       -957.9847435081951517
  Charge       = 0
  Multiplicity = 1
  Basis Set: 6-31G*
    Blend: 6-31G*
  Basis Set: (6-31G* AUX)
    Blend: CC-PVDZ-JKFIT

    Orbital Energies [Eh]
    ---------------------

    Doubly Occupied:

       1A   -104.837315     2A   -104.837241     3A    -11.366607
       4A    -10.571613     5A    -10.571520     6A     -8.041033
       7A     -8.040938     8A     -8.037450     9A     -8.037358
      10A     -8.037340    11A     -8.037249    12A     -1.198190
      13A     -1.099696    14A     -0.898664    15A     -0.680058
      16A     -0.620366    17A     -0.588635    18A     -0.474050
      19A     -0.471090    20A     -0.449423    21A     -0.446754

  @DF-RHF Final Energy:  -957.98477935536096

   => Energetics <=

    Nuclear Repulsion Energy =            134.4385866805154706
    One-Electron Energy =               -1590.1615516331194158
    Two-Electron Energy =                 497.7381855972428752
    Total Energy =                       -957.9847793553610700

  Dipole Moment: [D]
     X:    -0.0290      Y:    -1.9764      Z:     0.1147     Total:     1.9799

  Basis Set: (6-31G* AUX)
    Blend: CC-PVDZ-RI
    Molecular point group: c1
  Basis Set: 6-31G*
    Blend: 6-31G*
  Basis Set: (6-31G* AUX)
    Blend: CC-PVDZ-JKFIT
  Basis Set: (6-31G* AUX)
    Blend: CC-PVDZ-JKFIT
	 Reference Energy          =    -957.9847793553609563 [Eh]
	 Singles Energy            =      -0.0000000000000000 [Eh]
	 Same-Spin Energy          =      -0.1073088902301103 [Eh]
	 Opposite-Spin Energy      =      -0.3083978241136598 [Eh]
	 Correlation Energy        =      -0.4157067143437700 [Eh]
	 Total Energy              =    -958.4004860697046979 [Eh]

	 ================> DF-SCS-MP2 Energies <==================
	-----------------------------------------------------------
	 SCS Same-Spin Scale       =       0.3333333333333333 [-]
	 SCS Opposite-Spin Scale   =       1.2000000000000000 [-]
	 SCS Same-Spin Energy      =      -0.0357696300767034 [Eh]
	 SCS Opposite-Spin Energy  =      -0.3700773889363917 [Eh]
	 SCS Correlation Energy    =      -0.4058470190130952 [Eh]
	 SCS Total Energy          =    -958.3906263743740510 [Eh]
	-----------------------------------------------------------

  -Total Gradient:
     Atom            X                  Y                   Z
    ------   -----------------  -----------------  -----------------
       1        0.000282282645    -0.000299648387     0.000169510437
       2        0.000030452804    -0.000055290057     0.000191643872
       3       -0.000250665471     0.000120946163    -0.000368025485
       4        0.000005523457     0.000278594650    -0.000236292449
       5       -0.000067593561    -0.000044602375     0.000243163624

  **** Optimization is complete! (in 3 steps) ****
    Final optimized geometry and variables:
    Molecular point group: c1

    Geometry (in Angstrom), charge = 0, multiplicity = 1:

    CL          -1.471689364248     0.195045438238    -0.026316293626
    CL           1.476423361285     0.159223038399     0.006006481174
    C           -0.010672975328    -0.795293213701     0.045352323419
    H           -0.027427200576    -1.357471844066     0.974725747978
    H           -0.009748638351    -1.465283608540    -0.810031526940

*** Psi4 exiting successfully. Buy a developer a beer!
