                               Psi4 1.3.2 release

  ==> Input File <==

--------------------------------------------------------------------------
molecule {
0 1
CL -1.471689364248 0.195045438238 -0.026316293626
CL 1.476423361285 0.159223038399 0.006006481174
C -0.010672975328 -0.795293213701 0.045352323419
H -0.027427200576 -1.357471844066 0.974725747978
H -0.009748638351 -1.465283608540 -0.810031526940
}
memory 15GB
set_num_threads(4)
psi4_io.set_default_path("/scratch/bdw2292/Psi4-CH2Cl2")
set freeze_core True
set PROPERTIES_ORIGIN ["COM"]
set cubeprop_tasks ['esp']
E, wfn = properties('mp2/6-311G**',properties=['dipole'],return_wfn=True)
cubeprop(wfn)
fchk(wfn, "CH2Cl2-dma.fchk")
clean()
--------------------------------------------------------------------------

    Molecular point group: c1
  Charge       = 0
  Multiplicity = 1
  Basis Set: 6-311G**
    Blend: 6-311G**
  Basis Set: (6-311G** AUX)
    Blend: CC-PVTZ-JKFIT

    Orbital Energies [Eh]
    ---------------------

    Doubly Occupied:

       1A   -104.851359     2A   -104.851288     3A    -11.371007
       4A    -10.577954     5A    -10.577863     6A     -8.046212
       7A     -8.046119     8A     -8.043103     9A     -8.043014
      10A     -8.043007    11A     -8.042918    12A     -1.200074
      13A     -1.102792    14A     -0.901100    15A     -0.681613
      16A     -0.622135    17A     -0.591176    18A     -0.476674
      19A     -0.474044    20A     -0.452428    21A     -0.449499

  @DF-RHF Final Energy:  -958.04615738110078

   => Energetics <=

    Nuclear Repulsion Energy =            134.4385866805457397
    One-Electron Energy =               -1590.0787342219441598
    Two-Electron Energy =                 497.5939901602975510
    Total Energy =                       -958.0461573811007838
  Basis Set: (6-311G** AUX)
    Blend: CC-PVTZ-RI
    Molecular point group: c1

    Geometry (in Angstrom), charge = 0, multiplicity = 1:

       Center              X                  Y                   Z               Mass
    ------------   -----------------  -----------------  -----------------  -----------------
         CL          -1.471689364248     0.195045438238    -0.026316293626    34.968852682000
         CL           1.476423361285     0.159223038399     0.006006481174    34.968852682000
         C           -0.010672975328    -0.795293213701     0.045352323419    12.000000000000
         H           -0.027427200576    -1.357471844066     0.974725747978     1.007825032230
         H           -0.009748638351    -1.465283608540    -0.810031526940     1.007825032230

  Basis Set: 6-311G**
    Blend: 6-311G**
  Basis Set: (6-311G** AUX)
    Blend: CC-PVTZ-JKFIT
	 Reference Energy          =    -958.0461573811007838 [Eh]
	 Singles Energy            =      -0.0000000000000000 [Eh]
	 Same-Spin Energy          =      -0.1081023091930365 [Eh]
	 Opposite-Spin Energy      =      -0.3194318490057692 [Eh]
	 Correlation Energy        =      -0.4275341581988056 [Eh]
	 Total Energy              =    -958.4736915392995797 [Eh]

	 ================> DF-SCS-MP2 Energies <==================
	-----------------------------------------------------------
	 SCS Same-Spin Scale       =       0.3333333333333333 [-]
	 SCS Opposite-Spin Scale   =       1.2000000000000000 [-]
	 SCS Same-Spin Energy      =      -0.0360341030643455 [Eh]
	 SCS Opposite-Spin Energy  =      -0.3833182188069230 [Eh]
	 SCS Correlation Energy    =      -0.4193523218712685 [Eh]
	 SCS Total Energy          =    -958.4655097029720991 [Eh]
	-----------------------------------------------------------

  Dipole Moment: [D]
     X:    -0.0257      Y:    -1.7374      Z:     0.1015     Total:     1.7406

  Basis Set: 6-311G**
    Blend: 6-311G**
*** Psi4 exiting successfully. Buy a developer a beer!
