                               Psi4 1.3.2 release

  ==> Input File <==

--------------------------------------------------------------------------
molecule {
0 1
CL -1.471689364248 0.195045438238 -0.026316293626
CL 1.476423361285 0.159223038399 0.006006481174
C -0.010672975328 -0.795293213701 0.045352323419
H -0.027427200576 -1.357471844066 0.974725747978
H -0.009748638351 -1.465283608540 -0.810031526940
}
memory 15GB
set_num_threads(4)
psi4_io.set_default_path("/scratch/bdw2292/Psi4-CH2Cl2")
set maxiter 500
set freeze_core True
set PROPERTIES_ORIGIN ["COM"]
set cubeprop_tasks ['esp']
E, wfn = properties('mp2/aug-cc-pVTZ',properties=['dipole'],return_wfn=True)
cubeprop(wfn)
fchk(wfn, "CH2Cl2-esp.fchk")
oeprop(wfn,"GRID_ESP","WIBERG_LOWDIN_INDICES","MULLIKEN_CHARGES")
clean()
--------------------------------------------------------------------------

    Molecular point group: c1
  Charge       = 0
  Multiplicity = 1
  Basis Set: AUG-CC-PVTZ
    Blend: AUG-CC-PVTZ
  Basis Set: (AUG-CC-PVTZ AUX)
    Blend: AUG-CC-PVTZ-JKFIT

    Orbital Energies [Eh]
    ---------------------

    Doubly Occupied:

       1A   -104.850608     2A   -104.850537     3A    -11.366029
       4A    -10.575040     5A    -10.574951     6A     -8.041901
       7A     -8.041810     8A     -8.039927     9A     -8.039839
      10A     -8.039831    11A     -8.039743    12A     -1.193845
      13A     -1.097982    14A     -0.895780    15A     -0.675398
      16A     -0.617710    17A     -0.586728    18A     -0.474750
      19A     -0.471127    20A     -0.449137    21A     -0.445805

  @DF-RHF Final Energy:  -958.07904105751379

   => Energetics <=

    Nuclear Repulsion Energy =            134.4385866805457397
    One-Electron Energy =               -1590.2982975459456156
    Two-Electron Energy =                 497.7806698078861132
    Total Energy =                       -958.0790410575136775
  Basis Set: (AUG-CC-PVTZ AUX)
    Blend: AUG-CC-PVTZ-RI
    Molecular point group: c1

    Geometry (in Angstrom), charge = 0, multiplicity = 1:

       Center              X                  Y                   Z               Mass
    ------------   -----------------  -----------------  -----------------  -----------------
         CL          -1.471689364248     0.195045438238    -0.026316293626    34.968852682000
         CL           1.476423361285     0.159223038399     0.006006481174    34.968852682000
         C           -0.010672975328    -0.795293213701     0.045352323419    12.000000000000
         H           -0.027427200576    -1.357471844066     0.974725747978     1.007825032230
         H           -0.009748638351    -1.465283608540    -0.810031526940     1.007825032230

  Basis Set: AUG-CC-PVTZ
    Blend: AUG-CC-PVTZ
  Basis Set: (AUG-CC-PVTZ AUX)
    Blend: AUG-CC-PVTZ-JKFIT
	 Reference Energy          =    -958.0790410575137912 [Eh]
	 Singles Energy            =      -0.0000000000000000 [Eh]
	 Same-Spin Energy          =      -0.1372703797123313 [Eh]
	 Opposite-Spin Energy      =      -0.4285430315371917 [Eh]
	 Correlation Energy        =      -0.5658134112495230 [Eh]
	 Total Energy              =    -958.6448544687633557 [Eh]

	 ================> DF-SCS-MP2 Energies <==================
	-----------------------------------------------------------
	 SCS Same-Spin Scale       =       0.3333333333333333 [-]
	 SCS Opposite-Spin Scale   =       1.2000000000000000 [-]
	 SCS Same-Spin Energy      =      -0.0457567932374438 [Eh]
	 SCS Opposite-Spin Energy  =      -0.5142516378446300 [Eh]
	 SCS Correlation Energy    =      -0.5600084310820738 [Eh]
	 SCS Total Energy          =    -958.6390494885959015 [Eh]
	-----------------------------------------------------------

  Dipole Moment: [D]
     X:    -0.0241      Y:    -1.6267      Z:     0.0946     Total:     1.6297

  Basis Set: AUG-CC-PVTZ
    Blend: AUG-CC-PVTZ

  Mulliken Charges: (a.u.)
   Center  Symbol    Alpha    Beta     Spin     Total
       1    CL     8.58771  8.58771  0.00000 -0.17543
       2    CL     8.58796  8.58796  0.00000 -0.17591
       3     C     3.14630  3.14630  0.00000 -0.29260
       4     H     0.33908  0.33908  0.00000  0.32185
       5     H     0.33896  0.33896  0.00000  0.32209

   Total alpha = 21.00000, Total beta = 21.00000, Total charge = -0.00000

*** Psi4 exiting successfully. Buy a developer a beer!
