                               Psi4 1.3.2 release

  ==> Input File <==

--------------------------------------------------------------------------
molecule {
0 1
C 0.125047148827 -0.637933110471 -0.039470711872
C -1.329812911153 -0.513051503145 0.017285138853
N -0.397923233746 1.582392397245 0.100905790813
C -1.635890313637 0.957798661829 0.108846114498
C 0.654031447209 0.665965571689 0.014307968474
C 0.980911386798 -1.730724308456 -0.129052228519
C 2.021244974543 0.904789591100 -0.019377056085
C 2.358876056511 -1.504758202064 -0.163819291759
C 2.868340461146 -0.203835626348 -0.109539964518
C -2.300769616317 -1.437760264303 -0.000410835611
H -0.302614969015 2.589363267219 0.153164011054
O -2.727598630252 1.508397082021 0.176652887903
H 0.585730143074 -2.743522244597 -0.171359411037
H 2.422933239493 1.914057137479 0.022518429435
H 3.943772754261 -0.047880720961 -0.137795140907
H 3.042133205862 -2.346551572927 -0.233649376240
H -2.090753658572 -2.500703899333 -0.066208290756
H -3.338444826870 -1.122376099072 0.052540747822
}
memory 8.333333333333334GB
set_num_threads(1)
psi4_io.set_default_path("/scratch/bdw2292/Psi4-6_Index_0-farH_in17")
set maxiter 500
set freeze_core True
set PROPERTIES_ORIGIN ["COM"]
set cubeprop_tasks ['esp']
E, wfn = properties('mp2/aug-cc-pVTZ',properties=['dipole'],return_wfn=True)
cubeprop(wfn)
fchk(wfn, "6_Index_0-esp.fchk")
oeprop(wfn,"GRID_ESP","WIBERG_LOWDIN_INDICES","MULLIKEN_CHARGES")
clean()
--------------------------------------------------------------------------

    Molecular point group: c1
  Charge       = 0
  Multiplicity = 1
  Basis Set: AUG-CC-PVTZ
    Blend: AUG-CC-PVTZ
  Basis Set: (AUG-CC-PVTZ AUX)
    Blend: AUG-CC-PVTZ-JKFIT

    Orbital Energies [Eh]
    ---------------------

    Doubly Occupied:

       1A    -20.533047     2A    -15.609302     3A    -11.365231
       4A    -11.298501     5A    -11.262924     6A    -11.261274
       7A    -11.257311     8A    -11.254759     9A    -11.250997
      10A    -11.248691    11A    -11.241323    12A     -1.387082
      13A     -1.285236    14A     -1.153732    15A     -1.098774
      16A     -1.023500    17A     -1.006315    18A     -0.920436
      19A     -0.846715    20A     -0.816930    21A     -0.767838
      22A     -0.730890    23A     -0.695572    24A     -0.655227
      25A     -0.642241    26A     -0.619479    27A     -0.617256
      28A     -0.612377    29A     -0.605171    30A     -0.558188
      31A     -0.534357    32A     -0.521132    33A     -0.507584
      34A     -0.455570    35A     -0.432350    36A     -0.425673
      37A     -0.338604    38A     -0.304668

  @DF-RHF Final Energy:  -474.37159852899561

   => Energetics <=

    Nuclear Repulsion Energy =            551.5482425682133680
    One-Electron Energy =               -1737.5471659494430696
    Two-Electron Energy =                 711.6273248522342101
    Total Energy =                       -474.3715985289956052
  Basis Set: (AUG-CC-PVTZ AUX)
    Blend: AUG-CC-PVTZ-RI
    Molecular point group: c1

    Geometry (in Angstrom), charge = 0, multiplicity = 1:

       Center              X                  Y                   Z               Mass
    ------------   -----------------  -----------------  -----------------  -----------------
         C            0.125047148827    -0.637933110471    -0.039470711872    12.000000000000
         C           -1.329812911153    -0.513051503145     0.017285138853    12.000000000000
         N           -0.397923233746     1.582392397245     0.100905790813    14.003074004430
         C           -1.635890313637     0.957798661829     0.108846114498    12.000000000000
         C            0.654031447209     0.665965571689     0.014307968474    12.000000000000
         C            0.980911386798    -1.730724308456    -0.129052228519    12.000000000000
         C            2.021244974543     0.904789591100    -0.019377056085    12.000000000000
         C            2.358876056511    -1.504758202064    -0.163819291759    12.000000000000
         C            2.868340461146    -0.203835626348    -0.109539964518    12.000000000000
         C           -2.300769616317    -1.437760264303    -0.000410835611    12.000000000000
         H           -0.302614969015     2.589363267219     0.153164011054     1.007825032230
         O           -2.727598630252     1.508397082021     0.176652887903    15.994914619570
         H            0.585730143074    -2.743522244597    -0.171359411037     1.007825032230
         H            2.422933239493     1.914057137479     0.022518429435     1.007825032230
         H            3.943772754261    -0.047880720961    -0.137795140907     1.007825032230
         H            3.042133205862    -2.346551572927    -0.233649376240     1.007825032230
         H           -2.090753658572    -2.500703899333    -0.066208290756     1.007825032230
         H           -3.338444826870    -1.122376099072     0.052540747822     1.007825032230

  Basis Set: AUG-CC-PVTZ
    Blend: AUG-CC-PVTZ
  Basis Set: (AUG-CC-PVTZ AUX)
    Blend: AUG-CC-PVTZ-JKFIT
	 Reference Energy          =    -474.3715985289956052 [Eh]
	 Singles Energy            =      -0.0000000000000000 [Eh]
	 Same-Spin Energy          =      -0.4819035176962237 [Eh]
	 Opposite-Spin Energy      =      -1.3792462845873326 [Eh]
	 Correlation Energy        =      -1.8611498022835562 [Eh]
	 Total Energy              =    -476.2327483312791401 [Eh]

	 ================> DF-SCS-MP2 Energies <==================
	-----------------------------------------------------------
	 SCS Same-Spin Scale       =       0.3333333333333333 [-]
	 SCS Opposite-Spin Scale   =       1.2000000000000000 [-]
	 SCS Same-Spin Energy      =      -0.1606345058987412 [Eh]
	 SCS Opposite-Spin Energy  =      -1.6550955415047990 [Eh]
	 SCS Correlation Energy    =      -1.8157300474035403 [Eh]
	 SCS Total Energy          =    -476.1873285763991248 [Eh]
	-----------------------------------------------------------

  Dipole Moment: [D]
     X:     2.8959      Y:    -1.0079      Z:    -0.1548     Total:     3.0702

  Basis Set: AUG-CC-PVTZ
    Blend: AUG-CC-PVTZ

  Mulliken Charges: (a.u.)
   Center  Symbol    Alpha    Beta     Spin     Total
       1     C     2.05323  2.05323  0.00000  1.89355
       2     C     2.55844  2.55844  0.00000  0.88312
       3     N     3.51502  3.51502  0.00000 -0.03005
       4     C     2.80934  2.80934  0.00000  0.38131
       5     C     3.19823  3.19823  0.00000 -0.39646
       6     C     3.50002  3.50002  0.00000 -1.00003
       7     C     3.50262  3.50262  0.00000 -1.00525
       8     C     3.21808  3.21808  0.00000 -0.43615
       9     C     3.12774  3.12774  0.00000 -0.25548
      10     C     3.64762  3.64762  0.00000 -1.29525
      11     H     0.46770  0.46770  0.00000  0.06459
      12     O     4.42573  4.42573  0.00000 -0.85146
      13     H     0.56586  0.56586  0.00000 -0.13172
      14     H     0.27622  0.27622  0.00000  0.44757
      15     H     0.29244  0.29244  0.00000  0.41512
      16     H     0.17626  0.17626  0.00000  0.64749
      17     H     0.32911  0.32911  0.00000  0.34178
      18     H     0.33634  0.33634  0.00000  0.32733

   Total alpha = 38.00000, Total beta = 38.00000, Total charge =  0.00000

*** Psi4 exiting successfully. Buy a developer a beer!
