                               Psi4 1.3.2 release

  ==> Input File <==

--------------------------------------------------------------------------
molecule {
0 1
C 0.125047148827 -0.637933110471 -0.039470711872
C -1.329812911153 -0.513051503145 0.017285138853
N -0.397923233746 1.582392397245 0.100905790813
C -1.635890313637 0.957798661829 0.108846114498
C 0.654031447209 0.665965571689 0.014307968474
C 0.980911386798 -1.730724308456 -0.129052228519
C 2.021244974543 0.904789591100 -0.019377056085
C 2.358876056511 -1.504758202064 -0.163819291759
C 2.868340461146 -0.203835626348 -0.109539964518
C -2.300769616317 -1.437760264303 -0.000410835611
H -0.302614969015 2.589363267219 0.153164011054
O -2.727598630252 1.508397082021 0.176652887903
H 0.585730143074 -2.743522244597 -0.171359411037
H 2.422933239493 1.914057137479 0.022518429435
H 3.943772754261 -0.047880720961 -0.137795140907
H 3.042133205862 -2.346551572927 -0.233649376240
H -2.090753658572 -2.500703899333 -0.066208290756
H -3.338444826870 -1.122376099072 0.052540747822
}
memory 8.333333333333334GB
set_num_threads(1)
psi4_io.set_default_path("/scratch/bdw2292/Psi4-6_Index_0-farH_in17")
set freeze_core True
set PROPERTIES_ORIGIN ["COM"]
set cubeprop_tasks ['esp']
E, wfn = properties('mp2/6-311G**',properties=['dipole'],return_wfn=True)
cubeprop(wfn)
fchk(wfn, "6_Index_0-dma.fchk")
clean()
--------------------------------------------------------------------------

    Molecular point group: c1
  Charge       = 0
  Multiplicity = 1
  Basis Set: 6-311G**
    Blend: 6-311G**
  Basis Set: (6-311G** AUX)
    Blend: CC-PVTZ-JKFIT

    Orbital Energies [Eh]
    ---------------------

    Doubly Occupied:

       1A    -20.526045     2A    -15.604455     3A    -11.364175
       4A    -11.297778     5A    -11.261218     6A    -11.259567
       7A    -11.256052     8A    -11.253276     9A    -11.249666
      10A    -11.247274    11A    -11.239802    12A     -1.385538
      13A     -1.283981    14A     -1.152741    15A     -1.097650
      16A     -1.022640    17A     -1.005526    18A     -0.919397
      19A     -0.845718    20A     -0.815735    21A     -0.766700
      22A     -0.729887    23A     -0.694485    24A     -0.653593
      25A     -0.641211    26A     -0.618636    27A     -0.613911
      28A     -0.610913    29A     -0.604201    30A     -0.557082
      31A     -0.533371    32A     -0.518212    33A     -0.506609
      34A     -0.452551    35A     -0.429072    36A     -0.423273
      37A     -0.336645    38A     -0.302353

  @DF-RHF Final Energy:  -474.31360923958118

   => Energetics <=

    Nuclear Repulsion Energy =            551.5482425682133680
    One-Electron Energy =               -1737.5618211153450829
    Two-Electron Energy =                 711.6999693075504183
    Total Energy =                       -474.3136092395811829
  Basis Set: (6-311G** AUX)
    Blend: CC-PVTZ-RI
    Molecular point group: c1

    Geometry (in Angstrom), charge = 0, multiplicity = 1:

       Center              X                  Y                   Z               Mass
    ------------   -----------------  -----------------  -----------------  -----------------
         C            0.125047148827    -0.637933110471    -0.039470711872    12.000000000000
         C           -1.329812911153    -0.513051503145     0.017285138853    12.000000000000
         N           -0.397923233746     1.582392397245     0.100905790813    14.003074004430
         C           -1.635890313637     0.957798661829     0.108846114498    12.000000000000
         C            0.654031447209     0.665965571689     0.014307968474    12.000000000000
         C            0.980911386798    -1.730724308456    -0.129052228519    12.000000000000
         C            2.021244974543     0.904789591100    -0.019377056085    12.000000000000
         C            2.358876056511    -1.504758202064    -0.163819291759    12.000000000000
         C            2.868340461146    -0.203835626348    -0.109539964518    12.000000000000
         C           -2.300769616317    -1.437760264303    -0.000410835611    12.000000000000
         H           -0.302614969015     2.589363267219     0.153164011054     1.007825032230
         O           -2.727598630252     1.508397082021     0.176652887903    15.994914619570
         H            0.585730143074    -2.743522244597    -0.171359411037     1.007825032230
         H            2.422933239493     1.914057137479     0.022518429435     1.007825032230
         H            3.943772754261    -0.047880720961    -0.137795140907     1.007825032230
         H            3.042133205862    -2.346551572927    -0.233649376240     1.007825032230
         H           -2.090753658572    -2.500703899333    -0.066208290756     1.007825032230
         H           -3.338444826870    -1.122376099072     0.052540747822     1.007825032230

  Basis Set: 6-311G**
    Blend: 6-311G**
  Basis Set: (6-311G** AUX)
    Blend: CC-PVTZ-JKFIT
	 Reference Energy          =    -474.3136092395811829 [Eh]
	 Singles Energy            =      -0.0000000000000000 [Eh]
	 Same-Spin Energy          =      -0.4272514043407921 [Eh]
	 Opposite-Spin Energy      =      -1.1549371253750107 [Eh]
	 Correlation Energy        =      -1.5821885297158027 [Eh]
	 Total Energy              =    -475.8957977692969621 [Eh]

	 ================> DF-SCS-MP2 Energies <==================
	-----------------------------------------------------------
	 SCS Same-Spin Scale       =       0.3333333333333333 [-]
	 SCS Opposite-Spin Scale   =       1.2000000000000000 [-]
	 SCS Same-Spin Energy      =      -0.1424171347802640 [Eh]
	 SCS Opposite-Spin Energy  =      -1.3859245504500128 [Eh]
	 SCS Correlation Energy    =      -1.5283416852302769 [Eh]
	 SCS Total Energy          =    -475.8419509248114423 [Eh]
	-----------------------------------------------------------

  Dipole Moment: [D]
     X:     2.7039      Y:    -0.7923      Z:    -0.1364     Total:     2.8208

  Basis Set: 6-311G**
    Blend: 6-311G**
*** Psi4 exiting successfully. Buy a developer a beer!
