                               Psi4 1.3.2 release

  ==> Input File <==

--------------------------------------------------------------------------
molecule {
0 1
 C   -0.183400   -0.293200   -0.009900
 C   -1.635500   -0.211100    0.044400
 N   -0.687900    1.880600    0.127300
 C   -1.927800    1.226800    0.133700
 C    0.396100    0.951600    0.038900
 C    0.669200   -1.370600   -0.098500
 C    1.766400    1.110000    0.000700
 C    2.035800   -1.227500   -0.137500
 C    2.608100    0.023600   -0.088100
 C   -2.513500   -1.197600    0.020100
 H   -0.526700    2.908100    0.178400
 O   -3.089400    1.683700    0.198700
 H    0.209100   -2.352500   -0.136900
 H    2.233400    2.085400    0.038400
 H    3.702900    0.147300   -0.118800
 H    2.667800   -2.116600   -0.208100
 H   -2.150300   -2.208000   -0.048100
 H   -3.574400   -1.039900    0.065200
}
set {
  geom_maxiter 400
  g_convergence GAU
  dynamic_level 1
}
memory 8.333333333333334GB
set_num_threads(1)
psi4_io.set_default_path("/scratch/bdw2292/Psi4-6_Index_0-farH_in17")
for _ in range(1):
  try:
    set opt_coordinates both
    optimize('mp2/6-31G*')
    break
  except OptimizationConvergenceError:
    break
  else:
    try:
      set opt_coordinates cartesian
      optimize('mp2/6-31G*')
      break
    except OptimizationConvergenceError:
      pass
clean()
--------------------------------------------------------------------------

    Molecular point group: c1
  Charge       = 0
  Multiplicity = 1
  Basis Set: 6-31G*
    Blend: 6-31G*
  Basis Set: (6-31G* AUX)
    Blend: CC-PVDZ-JKFIT
  @DF-RHF Final Energy:  -474.19049789210533
    Total Energy =                       -474.1904978921053271
  Basis Set: (6-31G* AUX)
    Blend: CC-PVDZ-RI
    Molecular point group: c1
  Basis Set: 6-31G*
    Blend: 6-31G*
  Basis Set: (6-31G* AUX)
    Blend: CC-PVDZ-JKFIT
  Basis Set: (6-31G* AUX)
    Blend: CC-PVDZ-JKFIT
	 Reference Energy          =    -474.1904978921053271 [Eh]
	 Singles Energy            =      -0.0000000000000000 [Eh]
	 Same-Spin Energy          =      -0.4134246867567544 [Eh]
	 Opposite-Spin Energy      =      -1.1071351498088648 [Eh]
	 Correlation Energy        =      -1.5205598365656192 [Eh]
	 Total Energy              =    -475.7110577286709372 [Eh]
	 SCS Total Energy          =    -475.6568683007948835 [Eh]
  @DF-RHF Final Energy:  -474.20501405180903
    Total Energy =                       -474.2050140518090302
  @DF-RHF Final Energy:  -474.20717879896404
    Total Energy =                       -474.2071787989640370
  @DF-RHF Final Energy:  -474.20736390684613
    Total Energy =                       -474.2073639068461262
  Charge       = 0
  Multiplicity = 1
  Basis Set: 6-31G*
    Blend: 6-31G*
  Basis Set: (6-31G* AUX)
    Blend: CC-PVDZ-JKFIT

    Orbital Energies [Eh]
    ---------------------

    Doubly Occupied:

       1A    -20.536252     2A    -15.609088     3A    -11.363797
       4A    -11.295462     5A    -11.260904     6A    -11.258163
       7A    -11.255024     8A    -11.252428     9A    -11.247988
      10A    -11.246594    11A    -11.239243    12A     -1.381954
      13A     -1.280307    14A     -1.148436    15A     -1.093652
      16A     -1.018527    17A     -1.001535    18A     -0.915633
      19A     -0.841635    20A     -0.811778    21A     -0.762923
      22A     -0.726115    23A     -0.690452    24A     -0.648588
      25A     -0.637441    26A     -0.614599    27A     -0.609684
      28A     -0.606322    29A     -0.599766    30A     -0.553577
      31A     -0.529553    32A     -0.513770    33A     -0.502646
      34A     -0.447777    35A     -0.424210    36A     -0.418932
      37A     -0.332086    38A     -0.297736

  @DF-RHF Final Energy:  -474.20734323728129

   => Energetics <=

    Nuclear Repulsion Energy =            551.5482425682023404
    One-Electron Energy =               -1737.5620192129624684
    Two-Electron Energy =                 711.8064334074788349
    Total Energy =                       -474.2073432372812931

  Dipole Moment: [D]
     X:     3.1970      Y:    -1.4898      Z:    -0.1918     Total:     3.5322

  Basis Set: (6-31G* AUX)
    Blend: CC-PVDZ-RI
    Molecular point group: c1
  Basis Set: 6-31G*
    Blend: 6-31G*
  Basis Set: (6-31G* AUX)
    Blend: CC-PVDZ-JKFIT
  Basis Set: (6-31G* AUX)
    Blend: CC-PVDZ-JKFIT
	 Reference Energy          =    -474.2073432372812931 [Eh]
	 Singles Energy            =      -0.0000000000000000 [Eh]
	 Same-Spin Energy          =      -0.4122888803016102 [Eh]
	 Opposite-Spin Energy      =      -1.1062396851635481 [Eh]
	 Correlation Energy        =      -1.5185285654651584 [Eh]
	 Total Energy              =    -475.7258718027464397 [Eh]

	 ================> DF-SCS-MP2 Energies <==================
	-----------------------------------------------------------
	 SCS Same-Spin Scale       =       0.3333333333333333 [-]
	 SCS Opposite-Spin Scale   =       1.2000000000000000 [-]
	 SCS Same-Spin Energy      =      -0.1374296267672034 [Eh]
	 SCS Opposite-Spin Energy  =      -1.3274876221962577 [Eh]
	 SCS Correlation Energy    =      -1.4649172489634612 [Eh]
	 SCS Total Energy          =    -475.6722604862447383 [Eh]
	-----------------------------------------------------------

  -Total Gradient:
     Atom            X                  Y                   Z
    ------   -----------------  -----------------  -----------------
       1        0.000121469572    -0.000217123334    -0.000016684311
       2       -0.000293379777     0.000221389676     0.000026510414
       3        0.000255911831    -0.000047613936    -0.000007707114
       4       -0.000117571682    -0.000014646749    -0.000008722447
       5       -0.000054253932    -0.000052170573    -0.000001431404
       6       -0.000158285929     0.000076988671     0.000010056960
       7        0.000078950593     0.000129228609     0.000004406376
       8        0.000049950081     0.000168054963     0.000007436172
       9       -0.000090531944    -0.000133895819    -0.000004469439
      10        0.000132738098    -0.000058128354    -0.000007124454
      11       -0.000040555825     0.000018802190     0.000002682569
      12        0.000022521181    -0.000034251505     0.000001745585
      13        0.000050825595    -0.000000703473    -0.000001759863
      14       -0.000039005116    -0.000032194328    -0.000000305536
      15        0.000041554449    -0.000038338396    -0.000003486171
      16        0.000030760632     0.000004346613    -0.000000769969
      17       -0.000009331127     0.000051094164     0.000002430534
      18        0.000018233304    -0.000040838423    -0.000002807901

  **** Optimization is complete! (in 5 steps) ****
    Final optimized geometry and variables:
    Molecular point group: c1

    Geometry (in Angstrom), charge = 0, multiplicity = 1:

    C            0.125047148827    -0.637933110471    -0.039470711872
    C           -1.329812911153    -0.513051503145     0.017285138853
    N           -0.397923233746     1.582392397245     0.100905790813
    C           -1.635890313637     0.957798661829     0.108846114498
    C            0.654031447209     0.665965571689     0.014307968474
    C            0.980911386798    -1.730724308456    -0.129052228519
    C            2.021244974543     0.904789591100    -0.019377056085
    C            2.358876056511    -1.504758202064    -0.163819291759
    C            2.868340461146    -0.203835626348    -0.109539964518
    C           -2.300769616317    -1.437760264303    -0.000410835611
    H           -0.302614969015     2.589363267219     0.153164011054
    O           -2.727598630252     1.508397082021     0.176652887903
    H            0.585730143074    -2.743522244597    -0.171359411037
    H            2.422933239493     1.914057137479     0.022518429435
    H            3.943772754261    -0.047880720961    -0.137795140907
    H            3.042133205862    -2.346551572927    -0.233649376240
    H           -2.090753658572    -2.500703899333    -0.066208290756
    H           -3.338444826870    -1.122376099072     0.052540747822

*** Psi4 exiting successfully. Buy a developer a beer!
