                               Psi4 1.3.2 release

  ==> Input File <==

--------------------------------------------------------------------------
molecule {
0 1
C          0.76840       -0.39010        0.07510
C          0.81870        0.79670        0.73960
N          2.01500        1.48570        1.02620
H          2.04670        2.35900        1.59500
C          3.32760        1.04510        0.55700
C         -0.38080        1.37730        1.15150
C         -0.45250       -0.99130       -0.17810
C         -1.58120        0.75890        0.88810
C         -1.67290       -0.44230        0.21710
H          1.69470       -0.88110       -0.25600
H         -0.33620        2.31250        1.67300
H         -0.49600       -1.93920       -0.70890
H         -2.48410        1.26410        1.24600
N         -2.88880       -1.10540       -0.07100
H          3.21880        0.14840       -0.01660
H          3.96190        0.85600        1.39770
H          3.76280        1.80840       -0.05360
H         -2.87930       -1.96260       -0.55510
H         -3.74450       -0.70970        0.21260
}
memory 100GB
set_num_threads(12)
psi4_io.set_default_path("/scratch/bdw2292/Psi4-farH_in17")
set maxiter 500
set freeze_core True
set PROPERTIES_ORIGIN ["COM"]
set cubeprop_tasks ['esp']
E, wfn = properties('hf/MINIX',properties=['dipole'],return_wfn=True)
cubeprop(wfn)
fchk(wfn, "farH_in17-esp_frag.fchk")
oeprop(wfn,"WIBERG_LOWDIN_INDICES","MULLIKEN_CHARGES")
clean()
--------------------------------------------------------------------------

    Molecular point group: c1

    Geometry (in Angstrom), charge = 0, multiplicity = 1:

       Center              X                  Y                   Z               Mass
    ------------   -----------------  -----------------  -----------------  -----------------
         C            0.748138261550    -0.672349380386    -0.411030222854    12.000000000000
         C            0.798438261550     0.514450619614     0.253469777146    12.000000000000
         N            1.994738261550     1.203450619614     0.540069777146    14.003074004430
         H            2.026438261550     2.076750619614     1.108869777146     1.007825032230
         C            3.307338261550     0.762850619614     0.070869777146    12.000000000000
         C           -0.401061738450     1.095050619614     0.665369777146    12.000000000000
         C           -0.472761738450    -1.273549380386    -0.664230222854    12.000000000000
         C           -1.601461738450     0.476650619614     0.401969777146    12.000000000000
         C           -1.693161738450    -0.724549380386    -0.269030222854    12.000000000000
         H            1.674438261550    -1.163349380386    -0.742130222854     1.007825032230
         H           -0.356461738450     2.030250619614     1.186869777146     1.007825032230
         H           -0.516261738450    -2.221449380386    -1.195030222854     1.007825032230
         H           -2.504361738450     0.981850619614     0.759869777146     1.007825032230
         N           -2.909061738450    -1.387649380386    -0.557130222854    14.003074004430
         H            3.198538261550    -0.133849380386    -0.502730222854     1.007825032230
         H            3.941638261550     0.573750619614     0.911569777146     1.007825032230
         H            3.742538261550     1.526150619614    -0.539730222854     1.007825032230
         H           -2.899561738450    -2.244849380386    -1.041230222854     1.007825032230
         H           -3.764761738450    -0.991949380386    -0.273530222854     1.007825032230

  Charge       = 0
  Multiplicity = 1
  Basis Set: MINIX
    Blend: MINIX
  Basis Set: (MINIX AUX)
    Blend: DEF2-SVP-JKFIT

    Orbital Energies [Eh]
    ---------------------

    Doubly Occupied:

       1A    -15.379411     2A    -15.378140     3A    -11.213285
       4A    -11.212102     5A    -11.188441     6A    -11.154829
       7A    -11.152238     8A    -11.150598     9A    -11.150167
      10A     -1.210197    11A     -1.183203    12A     -1.105861
      13A     -1.008148    14A     -0.987251    15A     -0.903505
      16A     -0.828020    17A     -0.784488    18A     -0.706877
      19A     -0.682484    20A     -0.652580    21A     -0.611454
      22A     -0.609018    23A     -0.604098    24A     -0.570241
      25A     -0.554609    26A     -0.542548    27A     -0.536291
      28A     -0.510766    29A     -0.470325    30A     -0.460597
      31A     -0.372803    32A     -0.342411    33A     -0.245839

  @DF-RHF Final Energy:  -377.17371524707391

   => Energetics <=

    Nuclear Repulsion Energy =            423.0737941773777493
    One-Electron Energy =               -1349.5693461172684238
    Two-Electron Energy =                 549.3218366928167598
    Total Energy =                       -377.1737152470739147

  Dipole Moment: [D]
     X:     0.0337      Y:     0.1087      Z:     0.0642     Total:     0.1306

  Basis Set: MINIX
    Blend: MINIX

  Mulliken Charges: (a.u.)
   Center  Symbol    Alpha    Beta     Spin     Total
       1     C     3.08223  3.08223  0.00000 -0.16446
       2     C     2.95356  2.95356  0.00000  0.09289
       3     N     3.70149  3.70149  0.00000 -0.40298
       4     H     0.38306  0.38306  0.00000  0.23389
       5     C     3.13235  3.13235  0.00000 -0.26470
       6     C     3.07751  3.07751  0.00000 -0.15501
       7     C     3.07286  3.07286  0.00000 -0.14572
       8     C     3.07636  3.07636  0.00000 -0.15272
       9     C     2.95769  2.95769  0.00000  0.08462
      10     H     0.43393  0.43393  0.00000  0.13215
      11     H     0.43505  0.43505  0.00000  0.12989
      12     H     0.43691  0.43691  0.00000  0.12618
      13     H     0.43515  0.43515  0.00000  0.12969
      14     N     3.76058  3.76058  0.00000 -0.52116
      15     H     0.43042  0.43042  0.00000  0.13916
      16     H     0.43605  0.43605  0.00000  0.12791
      17     H     0.43580  0.43580  0.00000  0.12841
      18     H     0.37934  0.37934  0.00000  0.24131
      19     H     0.37967  0.37967  0.00000  0.24067

   Total alpha = 33.00000, Total beta = 33.00000, Total charge = -0.00000

*** Psi4 exiting successfully. Buy a developer a beer!
