                               Psi4 1.5 release

  ==> Input File <==

--------------------------------------------------------------------------
molecule {
0 1
 C   -0.798700   -0.461700    0.408600
 N   -2.067800   -0.696200    0.963700
 C   -3.344400   -0.170000    0.775700
 C   -4.406000   -0.531700    1.538600
 H   -2.037400   -1.387000    1.722200
 C   -3.574400    0.759600   -0.347000
 C   -5.844500   -0.191400    1.515900
 N   -5.462300   -1.602900    3.289300
 C   -4.218400   -1.480600    2.703200
 C   -6.417300   -0.862600    2.604600
 C   -3.699700    2.139400   -0.116200
 C   -3.691500    0.268800   -1.654900
 C   -3.945100    3.010800   -1.178700
 C   -3.936300    1.143700   -2.714600
 C   -4.065300    2.511800   -2.475400
 C    0.175900   -1.455600    0.573900
 C   -0.435200    0.645900   -0.349200
 C    1.461500   -1.339200    0.021200
 C    0.850600    0.767300   -0.906100
 C    1.830800   -0.220300   -0.728700
 H   -5.631600   -2.186800    4.094400
 O   -3.187000   -2.028200    3.051100
 H   -3.609700    2.536100    0.892500
 H   -3.591500   -0.796700   -1.848800
 H   -4.052600    4.076700   -0.994600
 H   -4.033300    0.757000   -3.725800
 H   -4.267600    3.189900   -3.301000
 H   -0.061300   -2.359000    1.133800
 H   -1.120700    1.468400   -0.508800
 H    2.134700   -2.177400    0.171200
 H    1.053800    1.682700   -1.453900
 N    3.143600   -0.079700   -1.318400
 H   -6.328300    0.416600    0.836700
 H   -7.415200   -0.813400    2.863000
 H    3.821000   -0.781600   -1.184900
 H    3.360000    0.717900   -1.853400
}
set {
  geom_maxiter 400
  g_convergence GAU
  dynamic_level 1
}
memory 8.166666666666666GB
set_num_threads(2)
psi4_io.set_default_path("/scratch/bdw2292/Psi4-1_7_Index_0_GrowFragment_0-farH_in17")
for _ in range(1):
  try:
    set opt_coordinates both
    optimize('mp2/6-31G*')
    break
  except:
    break
  else:
    try:
      set opt_coordinates cartesian
      optimize('mp2/6-31G*')
      break
    except:
      pass
clean()
--------------------------------------------------------------------------

    Molecular point group: c1
  Charge       = 0
  Multiplicity = 1
  Basis Set: 6-31G*
    Blend: 6-31G*
  Basis Set: (6-31G* AUX)
    Blend: CC-PVDZ-JKFIT
  @DF-RHF Final Energy:  -890.66901866658236
    Total Energy =                       -890.6690186665823603
  Basis Set: (6-31G* AUX)
    Blend: CC-PVDZ-RI
    Molecular point group: c1
  Basis Set: 6-31G*
    Blend: 6-31G*
  Basis Set: (6-31G* AUX)
    Blend: CC-PVDZ-JKFIT
  Basis Set: (6-31G* AUX)
    Blend: CC-PVDZ-JKFIT
	 Reference Energy          =    -890.6690186665823603 [Eh]
	 Singles Energy            =      -0.0000000000000000 [Eh]
	 Same-Spin Energy          =      -0.7946799780407140 [Eh]
	 Opposite-Spin Energy      =      -2.1268134359122302 [Eh]
	 Correlation Energy        =      -2.9214934139529443 [Eh]
	 Total Energy              =    -893.5905120805352908 [Eh]
	 SCS Total Energy          =    -893.4860881156905634 [Eh]
  @DF-RHF Final Energy:  -890.68468450262878
    Total Energy =                       -890.6846845026288975
  @DF-RHF Final Energy:  -890.68487443245601
    Total Energy =                       -890.6848744324558993
  @DF-RHF Final Energy:  -890.68339253612908
    Total Energy =                       -890.6833925361290767
  @DF-RHF Final Energy:  -890.68356316270865
    Total Energy =                       -890.6835631627086514
  @DF-RHF Final Energy:  -890.68590974778942
    Total Energy =                       -890.6859097477893101
  @DF-RHF Final Energy:  -890.68863910548453
    Total Energy =                       -890.6886391054845262
  @DF-RHF Final Energy:  -890.68642968099221
    Total Energy =                       -890.6864296809922052
  @DF-RHF Final Energy:  -890.68863910508639
    Total Energy =                       -890.6886391050863949
  @DF-RHF Final Energy:  -890.68848705697371
    Total Energy =                       -890.6884870569735995
  @DF-RHF Final Energy:  -890.68855694253489
    Total Energy =                       -890.6885569425348876
  @DF-RHF Final Energy:  -890.68914307136254
    Total Energy =                       -890.6891430713624231
  @DF-RHF Final Energy:  -890.68977370069331
    Total Energy =                       -890.6897737006934221
  @DF-RHF Final Energy:  -890.68972882037428
    Total Energy =                       -890.6897288203742846
  @DF-RHF Final Energy:  -890.68966734936544
    Total Energy =                       -890.6896673493654362
  @DF-RHF Final Energy:  -890.68966255359533
    Total Energy =                       -890.6896625535953262
  @DF-RHF Final Energy:  -890.68968544457061
    Total Energy =                       -890.6896854445706140
  @DF-RHF Final Energy:  -890.68972116786745
    Total Energy =                       -890.6897211678674466
  Charge       = 0
  Multiplicity = 1
  Basis Set: 6-31G*
    Blend: 6-31G*
  Basis Set: (6-31G* AUX)
    Blend: CC-PVDZ-JKFIT

    Orbital Energies [Eh]
    ---------------------

    Doubly Occupied:

       1A    -20.505236     2A    -15.587317     3A    -15.587020
       4A    -15.567835     5A    -11.332246     6A    -11.314170
       7A    -11.275805     8A    -11.268706     9A    -11.258294
      10A    -11.255203    11A    -11.249151    12A    -11.248103
      13A    -11.247878    14A    -11.245753    15A    -11.244341
      16A    -11.236723    17A    -11.236690    18A    -11.229899
      19A    -11.229787    20A    -11.216940    21A    -11.209981
      22A     -1.348943    23A     -1.269374    24A     -1.249463
      25A     -1.219266    26A     -1.162190    27A     -1.124697
      28A     -1.069715    29A     -1.030984    30A     -1.022257
      31A     -1.014188    32A     -0.991368    33A     -0.951434
      34A     -0.891849    35A     -0.842063    36A     -0.835440
      37A     -0.831997    38A     -0.798514    39A     -0.780719
      40A     -0.759907    41A     -0.717188    42A     -0.699572
      43A     -0.686171    44A     -0.682141    45A     -0.676100
      46A     -0.655296    47A     -0.635983    48A     -0.624210
      49A     -0.607137    50A     -0.598934    51A     -0.593916
      52A     -0.585576    53A     -0.582972    54A     -0.580475
      55A     -0.578541    56A     -0.569867    57A     -0.558603
      58A     -0.535089    59A     -0.528695    60A     -0.515613
      61A     -0.507791    62A     -0.503845    63A     -0.500193
      64A     -0.483011    65A     -0.450855    66A     -0.440387
      67A     -0.398829    68A     -0.366501    69A     -0.346748
      70A     -0.343278    71A     -0.331974    72A     -0.286164
      73A     -0.247023

  @DF-RHF Final Energy:  -890.68975666211315

   => Energetics <=

    Nuclear Repulsion Energy =           1551.4532771599979242
    One-Electron Energy =               -4293.9658258174931689
    Two-Electron Energy =                1851.8227919953822038
    Total Energy =                       -890.6897566621130409

  Dipole Moment: [D]
     X:     0.1119      Y:     2.7474      Z:    -1.6798     Total:     3.2222

  Basis Set: (6-31G* AUX)
    Blend: CC-PVDZ-RI
    Molecular point group: c1
  Basis Set: 6-31G*
    Blend: 6-31G*
  Basis Set: (6-31G* AUX)
    Blend: CC-PVDZ-JKFIT
  Basis Set: (6-31G* AUX)
    Blend: CC-PVDZ-JKFIT
	 Reference Energy          =    -890.6897566621131546 [Eh]
	 Singles Energy            =      -0.0000000000000000 [Eh]
	 Same-Spin Energy          =      -0.7982307643548924 [Eh]
	 Opposite-Spin Energy      =      -2.1290812218032236 [Eh]
	 Correlation Energy        =      -2.9273119861581161 [Eh]
	 Total Energy              =    -893.6170686482712426 [Eh]

	 ================> DF-SCS-MP2 Energies <==================
	-----------------------------------------------------------
	 SCS Same-Spin Scale       =       0.3333333333333333 [-]
	 SCS Opposite-Spin Scale   =       1.2000000000000000 [-]
	 SCS Same-Spin Energy      =      -0.2660769214516308 [Eh]
	 SCS Opposite-Spin Energy  =      -2.5548974661638684 [Eh]
	 SCS Correlation Energy    =      -2.8209743876154993 [Eh]
	 SCS Total Energy          =    -893.5107310497286335 [Eh]
	-----------------------------------------------------------

  -Total Gradient:
     Atom            X                  Y                   Z
    ------   -----------------  -----------------  -----------------
       1       -0.000016545658     0.000023341834     0.000021796471
       2       -0.000006801842     0.000025054139    -0.000008244644
       3       -0.000007411320    -0.000013859436     0.000025606533
       4       -0.000053095094    -0.000019028801    -0.000067380888
       5       -0.000022824584    -0.000023380958     0.000005765850
       6        0.000019825141    -0.000023194268    -0.000015265094
       7        0.000025320889     0.000062553600     0.000016223395
       8       -0.000027586353     0.000004339662     0.000008865899
       9        0.000073026090    -0.000010951804     0.000022187430
      10       -0.000020513440    -0.000056458342     0.000002896375
      11        0.000019124088    -0.000007459204    -0.000004615413
      12        0.000003427841    -0.000000845714     0.000058929431
      13        0.000004356421    -0.000000914617    -0.000046219235
      14       -0.000001623958     0.000009916574    -0.000010747971
      15       -0.000010034031     0.000015114571     0.000030160356
      16        0.000001656114    -0.000016706331    -0.000042358447
      17       -0.000004982914    -0.000022720717    -0.000024732418
      18       -0.000014062414     0.000025805378     0.000046645665
      19       -0.000026005005    -0.000046692765     0.000049440911
      20        0.000077739357     0.000046606480    -0.000080981741
      21        0.000007666132     0.000020382625    -0.000008865259
      22        0.000002313704     0.000024030063    -0.000004582843
      23       -0.000003656166    -0.000008473348    -0.000010691713
      24        0.000000723063    -0.000002261774     0.000002601262
      25       -0.000000681504    -0.000001191460    -0.000003763551
      26       -0.000003716351     0.000001836760     0.000013962551
      27        0.000000828066     0.000006634998     0.000001265823
      28        0.000008247706     0.000021574100     0.000006578238
      29        0.000008005688    -0.000011163258    -0.000003059221
      30        0.000000480574     0.000006778102    -0.000005665024
      31        0.000014227226     0.000004822071    -0.000013145246
      32       -0.000077841407    -0.000092963961     0.000028650892
      33        0.000000923346    -0.000002186482     0.000021210473
      34        0.000008217121     0.000001393906    -0.000021841216
      35       -0.000002773055     0.000047820913    -0.000004303696
      36        0.000024046532     0.000012447475     0.000013676063

  **** Optimization is complete! (in 11 steps) ****
    Final optimized geometry and variables:
    Molecular point group: c1

    Geometry (in Angstrom), charge = 0, multiplicity = 1:

    C            1.541487966730    -0.521020246824    -0.140148226537
    N            0.370389871710    -0.918893004911     0.536889680748
    C           -0.832057320215    -0.289012851446     0.536491312183
    C           -1.785666526923    -0.645118401456     1.472159582904
    H            0.445552605881    -1.649926203257     1.261288600961
    C           -1.126761430217     0.696214610279    -0.521290081431
    C           -3.157435639782    -0.222665401258     1.623060712855
    N           -2.674852217260    -1.695640943668     3.257025128421
    C           -1.505789382311    -1.623125117930     2.525042148310
    C           -3.661365507457    -0.875950436503     2.705901489910
    C           -1.641080742789     1.956559288467    -0.190865597124
    C           -0.908271275492     0.365090154436    -1.865753879918
    C           -1.929912679517     2.877285823899    -1.197523832092
    C           -1.204576328784     1.287148695709    -2.865631640754
    C           -1.713169843525     2.545383077998    -2.535213065472
    C            2.408201521507    -1.515927798168    -0.604271042982
    C            1.901699264129     0.822898380266    -0.298474421923
    C            3.595402920420    -1.177737457902    -1.244036001477
    C            3.077257447759     1.155876538649    -0.961338378213
    C            3.952654477029     0.164630027747    -1.425663812651
    H           -2.788374679778    -2.330536534243     4.036108830327
    O           -0.463993845755    -2.280454672409     2.743828187374
    H           -1.794911265558     2.211973970471     0.854761473955
    H           -0.512466868959    -0.615618321622    -2.118020776121
    H           -2.321553224149     3.857335293567    -0.936197487797
    H           -1.038842881906     1.024193936832    -3.907368699136
    H           -1.938740746674     3.264451015912    -3.318623517097
    H            2.133656081946    -2.561039470623    -0.478718828906
    H            1.259700843837     1.607305333051     0.089963824631
    H            4.256891465652    -1.964445300296    -1.602070747372
    H            3.341707732483     2.204600871452    -1.085486624004
    N            5.107257751617     0.508464808532    -2.146928943874
    H           -3.698448112554     0.467358631089     0.990651752507
    H           -4.648080633888    -0.831832039912     3.146809868879
    H            5.841558519705    -0.189188141624    -2.081268704480
    H            5.477321302893     1.419859041993    -1.896212171579

*** Psi4 exiting successfully. Buy a developer a beer!
