                               Psi4 1.5 release

  ==> Input File <==

--------------------------------------------------------------------------
molecule {
0 1
C 1.541487966730 -0.521020246824 -0.140148226537
N 0.370389871710 -0.918893004911 0.536889680748
C -0.832057320215 -0.289012851446 0.536491312183
C -1.785666526923 -0.645118401456 1.472159582904
H 0.445552605881 -1.649926203257 1.261288600961
C -1.126761430217 0.696214610279 -0.521290081431
C -3.157435639782 -0.222665401258 1.623060712855
N -2.674852217260 -1.695640943668 3.257025128421
C -1.505789382311 -1.623125117930 2.525042148310
C -3.661365507457 -0.875950436503 2.705901489910
C -1.641080742789 1.956559288467 -0.190865597124
C -0.908271275492 0.365090154436 -1.865753879918
C -1.929912679517 2.877285823899 -1.197523832092
C -1.204576328784 1.287148695709 -2.865631640754
C -1.713169843525 2.545383077998 -2.535213065472
C 2.408201521507 -1.515927798168 -0.604271042982
C 1.901699264129 0.822898380266 -0.298474421923
C 3.595402920420 -1.177737457902 -1.244036001477
C 3.077257447759 1.155876538649 -0.961338378213
C 3.952654477029 0.164630027747 -1.425663812651
H -2.788374679778 -2.330536534243 4.036108830327
O -0.463993845755 -2.280454672409 2.743828187374
H -1.794911265558 2.211973970471 0.854761473955
H -0.512466868959 -0.615618321622 -2.118020776121
H -2.321553224149 3.857335293567 -0.936197487797
H -1.038842881906 1.024193936832 -3.907368699136
H -1.938740746674 3.264451015912 -3.318623517097
H 2.133656081946 -2.561039470623 -0.478718828906
H 1.259700843837 1.607305333051 0.089963824631
H 4.256891465652 -1.964445300296 -1.602070747372
H 3.341707732483 2.204600871452 -1.085486624004
N 5.107257751617 0.508464808532 -2.146928943874
H -3.698448112554 0.467358631089 0.990651752507
H -4.648080633888 -0.831832039912 3.146809868879
H 5.841558519705 -0.189188141624 -2.081268704480
H 5.477321302893 1.419859041993 -1.896212171579
no_reorient
}
memory 8.166666666666666GB
set_num_threads(2)
psi4_io.set_default_path("/scratch/bdw2292/Psi4-1_7_Index_0_GrowFragment_0-farH_in17")
set freeze_core True
set PROPERTIES_ORIGIN ["COM"]
set cubeprop_tasks ['esp']
set basis 6-311G**
E, wfn = properties('mp2',properties=['dipole'],return_wfn=True)
cubeprop(wfn)
fchk(wfn, "1_7_Index_0_GrowFragment_0-dma.fchk")
clean()
--------------------------------------------------------------------------

    Molecular point group: c1
  Charge       = 0
  Multiplicity = 1
  Basis Set: 6-311G**
    Blend: 6-311G**
  Basis Set: (6-311G** AUX)
    Blend: CC-PVTZ-JKFIT

    Orbital Energies [Eh]
    ---------------------

    Doubly Occupied:

       1A    -20.495565     2A    -15.582614     3A    -15.581992
       4A    -15.560758     5A    -11.333411     6A    -11.316385
       7A    -11.277168     8A    -11.270136     9A    -11.259010
      10A    -11.256947    11A    -11.249936    12A    -11.248867
      13A    -11.248648    14A    -11.246457    15A    -11.245094
      16A    -11.237417    17A    -11.237352    18A    -11.230189
      19A    -11.230083    20A    -11.217867    21A    -11.211734
      22A     -1.353268    23A     -1.273162    24A     -1.253522
      25A     -1.221685    26A     -1.166504    27A     -1.128623
      28A     -1.073855    29A     -1.035153    30A     -1.026260
      31A     -1.017982    32A     -0.995231    33A     -0.955322
      34A     -0.895870    35A     -0.845927    36A     -0.839333
      37A     -0.836008    38A     -0.802492    39A     -0.784428
      40A     -0.763865    41A     -0.721510    42A     -0.703348
      43A     -0.690201    44A     -0.685286    45A     -0.679423
      46A     -0.658989    47A     -0.640105    48A     -0.628378
      49A     -0.610589    50A     -0.602805    51A     -0.597744
      52A     -0.589745    53A     -0.587393    54A     -0.584389
      55A     -0.582444    56A     -0.574632    57A     -0.563000
      58A     -0.539417    59A     -0.533070    60A     -0.520019
      61A     -0.511817    62A     -0.507806    63A     -0.503894
      64A     -0.486865    65A     -0.455992    66A     -0.444740
      67A     -0.404567    68A     -0.371436    69A     -0.351169
      70A     -0.347793    71A     -0.336401    72A     -0.290672
      73A     -0.252220

  @DF-RHF Final Energy:  -890.89270407205049

   => Energetics <=

    Nuclear Repulsion Energy =           1551.4532771600026990
    One-Electron Energy =               -4293.9640029121110274
    Two-Electron Energy =                1851.6180216800580638
    Total Energy =                       -890.8927040720504920
  Basis Set: (6-311G** AUX)
    Blend: CC-PVTZ-RI
    Molecular point group: c1

    Geometry (in Angstrom), charge = 0, multiplicity = 1:

       Center              X                  Y                   Z               Mass
    ------------   -----------------  -----------------  -----------------  -----------------
         C            1.541487966730    -0.521020246824    -0.140148226537    12.000000000000
         N            0.370389871710    -0.918893004911     0.536889680748    14.003074004430
         C           -0.832057320215    -0.289012851446     0.536491312183    12.000000000000
         C           -1.785666526923    -0.645118401456     1.472159582904    12.000000000000
         H            0.445552605881    -1.649926203257     1.261288600961     1.007825032230
         C           -1.126761430217     0.696214610279    -0.521290081431    12.000000000000
         C           -3.157435639782    -0.222665401258     1.623060712855    12.000000000000
         N           -2.674852217260    -1.695640943668     3.257025128421    14.003074004430
         C           -1.505789382311    -1.623125117930     2.525042148310    12.000000000000
         C           -3.661365507457    -0.875950436503     2.705901489910    12.000000000000
         C           -1.641080742789     1.956559288467    -0.190865597124    12.000000000000
         C           -0.908271275492     0.365090154436    -1.865753879918    12.000000000000
         C           -1.929912679517     2.877285823899    -1.197523832092    12.000000000000
         C           -1.204576328784     1.287148695709    -2.865631640754    12.000000000000
         C           -1.713169843525     2.545383077998    -2.535213065472    12.000000000000
         C            2.408201521507    -1.515927798168    -0.604271042982    12.000000000000
         C            1.901699264129     0.822898380266    -0.298474421923    12.000000000000
         C            3.595402920420    -1.177737457902    -1.244036001477    12.000000000000
         C            3.077257447759     1.155876538649    -0.961338378213    12.000000000000
         C            3.952654477029     0.164630027747    -1.425663812651    12.000000000000
         H           -2.788374679778    -2.330536534243     4.036108830327     1.007825032230
         O           -0.463993845755    -2.280454672409     2.743828187374    15.994914619570
         H           -1.794911265558     2.211973970471     0.854761473955     1.007825032230
         H           -0.512466868959    -0.615618321622    -2.118020776121     1.007825032230
         H           -2.321553224149     3.857335293567    -0.936197487797     1.007825032230
         H           -1.038842881906     1.024193936832    -3.907368699136     1.007825032230
         H           -1.938740746674     3.264451015912    -3.318623517097     1.007825032230
         H            2.133656081946    -2.561039470623    -0.478718828906     1.007825032230
         H            1.259700843837     1.607305333051     0.089963824631     1.007825032230
         H            4.256891465652    -1.964445300296    -1.602070747372     1.007825032230
         H            3.341707732483     2.204600871452    -1.085486624004     1.007825032230
         N            5.107257751617     0.508464808532    -2.146928943874    14.003074004430
         H           -3.698448112554     0.467358631089     0.990651752507     1.007825032230
         H           -4.648080633888    -0.831832039912     3.146809868879     1.007825032230
         H            5.841558519705    -0.189188141624    -2.081268704480     1.007825032230
         H            5.477321302893     1.419859041993    -1.896212171579     1.007825032230

  Basis Set: 6-311G**
    Blend: 6-311G**
  Basis Set: (6-311G** AUX)
    Blend: CC-PVTZ-JKFIT
	 Reference Energy          =    -890.8927040720504920 [Eh]
	 Singles Energy            =      -0.0000000000000000 [Eh]
	 Same-Spin Energy          =      -0.8290368713880231 [Eh]
	 Opposite-Spin Energy      =      -2.2261016177786850 [Eh]
	 Correlation Energy        =      -3.0551384891667079 [Eh]
	 Total Energy              =    -893.9478425612171577 [Eh]

	 ================> DF-SCS-MP2 Energies <==================
	-----------------------------------------------------------
	 SCS Same-Spin Scale       =       0.3333333333333333 [-]
	 SCS Opposite-Spin Scale   =       1.2000000000000000 [-]
	 SCS Same-Spin Energy      =      -0.2763456237960077 [Eh]
	 SCS Opposite-Spin Energy  =      -2.6713219413344218 [Eh]
	 SCS Correlation Energy    =      -2.9476675651304296 [Eh]
	 SCS Total Energy          =    -893.8403716371809651 [Eh]
	-----------------------------------------------------------

  Dipole Moment: [D]
     X:     0.7974      Y:     1.9993      Z:    -1.2364     Total:     2.4823

  Basis Set: 6-311G**
    Blend: 6-311G**
*** Psi4 exiting successfully. Buy a developer a beer!
