                               Psi4 1.5 release

  ==> Input File <==

--------------------------------------------------------------------------
molecule {
0 1
 C    2.033610    0.319961    0.071441
 N    0.876374    0.175023   -0.721796
 C   -0.404873    0.065114   -0.081579
 C   -1.125580   -1.154527   -0.132766
 C    0.902791    0.190439   -2.201878
 C   -0.995187    1.189646    0.548406
 C   -2.396115   -1.241943    0.453922
 C   -2.970020   -0.130008    1.085048
 C   -2.266947    1.081454    1.128023
 H   -0.696244   -2.029439   -0.625450
 H   -0.460115    2.140281    0.588219
 C    3.363538    0.546019   -0.653018
 O    1.982793    0.314761    1.299418
 H   -0.106789    0.124442   -2.610688
 H    1.346255    1.116529   -2.569841
 H    1.474085   -0.657568   -2.582065
 H   -2.940908   -2.186668    0.410892
 H   -2.711221    1.953166    1.611620
 H    3.576101   -0.260103   -1.355136
 H    3.361406    1.499211   -1.182044
 H   -3.960133   -0.205902    1.538703
 H    4.173863    0.571408    0.076831
}
set optking {
  frozen_dihedral = ("
    1 2 3 4
    12 1 2 3
  ")
}
set {
  geom_maxiter 400
  g_convergence GAU_LOOSE
  dynamic_level 1
}
memory 8.166666666666666GB
set_num_threads(2)
psi4_io.set_default_path("/scratch/bdw2292/Psi4-3_24_Index_0-farH_in17")
for _ in range(1):
  try:
    set opt_coordinates both
    optimize('wb97x-d/6-311G')
    break
  except OptimizationConvergenceError:
    break
  else:
    try:
      set opt_coordinates cartesian
      optimize('wb97x-d/6-311G')
      break
    except OptimizationConvergenceError:
      pass
clean()
--------------------------------------------------------------------------

    Molecular point group: c1
  Charge       = 0
  Multiplicity = 1
  Basis Set: 6-311G
    Blend: 6-311G
  Basis Set: (6-311G AUX)
    Blend: CC-PVTZ-JKFIT
  @DF-RKS Final Energy:  -479.37655094440629
    Total Energy =                       -479.3765509444063468
    Molecular point group: c1
  Basis Set: 6-311G
    Blend: 6-311G
  Basis Set: (6-311G AUX)
    Blend: CC-PVTZ-JKFIT
  Basis Set: 6-311G
    Blend: 6-311G
  Basis Set: (6-311G AUX)
    Blend: CC-PVTZ-JKFIT
  @DF-RKS Final Energy:  -479.38026756303799
    Total Energy =                       -479.3802675630380463
  Basis Set: 6-311G
    Blend: 6-311G
  Basis Set: (6-311G AUX)
    Blend: CC-PVTZ-JKFIT
  Basis Set: 6-311G
    Blend: 6-311G
  @DF-RKS Final Energy:  -479.38010875139980
    Total Energy =                       -479.3801087513998596
  @DF-RKS Final Energy:  -479.38058888055122
    Total Energy =                       -479.3805888805512154
  @DF-RKS Final Energy:  -479.38071667146374
    Total Energy =                       -479.3807166714638015
  @DF-RKS Final Energy:  -479.38070993475429
    Total Energy =                       -479.3807099347542930
  Basis Set: (6-311G AUX)
    Blend: CC-PVTZ-JKFIT
  Basis Set: 6-311G
    Blend: 6-311G
  Basis Set: (6-311G AUX)
    Blend: CC-PVTZ-JKFIT
  @DF-RKS Final Energy:  -479.38071667290421
    Total Energy =                       -479.3807166729042706
  Basis Set: 6-311G
    Blend: 6-311G
  Basis Set: (6-311G AUX)
    Blend: CC-PVTZ-JKFIT
  Charge       = 0
  Multiplicity = 1
  Basis Set: 6-311G
    Blend: 6-311G
  Basis Set: (6-311G AUX)
    Blend: CC-PVTZ-JKFIT

    Orbital Energies [Eh]
    ---------------------

    Doubly Occupied:

       1A    -19.203913     2A    -14.471576     3A    -10.396819
       4A    -10.335947     5A    -10.329642     6A    -10.296728
       7A    -10.296143     8A    -10.295171     9A    -10.294372
      10A    -10.294104    11A    -10.290123    12A     -1.145031
      13A     -1.050030    14A     -0.965377    15A     -0.871188
      16A     -0.858667    17A     -0.839733    18A     -0.810802
      19A     -0.723567    20A     -0.713385    21A     -0.657589
      22A     -0.609655    23A     -0.585276    24A     -0.577165
      25A     -0.569561    26A     -0.542371    27A     -0.538947
      28A     -0.518853    29A     -0.513316    30A     -0.500338
      31A     -0.493877    32A     -0.476971    33A     -0.461341
      34A     -0.447839    35A     -0.445645    36A     -0.433719
      37A     -0.347401    38A     -0.337222    39A     -0.326858
      40A     -0.311944

  @DF-RKS Final Energy:  -479.38072046129031

   => Energetics <=

    Nuclear Repulsion Energy =            588.2845734844960361
    One-Electron Energy =               -1815.0147297844237073
    Two-Electron Energy =                 794.4440801866186348
    DFT Exchange-Correlation Energy =     -47.0817692105925403
    Empirical Dispersion Energy =          -0.0128751373886014
    VV10 Nonlocal Energy =                  0.0000000000000000
    Total Energy =                       -479.3807204612903092

  Dipole Moment: [D]
     X:    -0.8401      Y:     0.1424      Z:    -4.0857     Total:     4.1736

    Molecular point group: c1
  Basis Set: 6-311G
    Blend: 6-311G
  Basis Set: (6-311G AUX)
    Blend: CC-PVTZ-JKFIT

  -Total Gradient:
     Atom            X                  Y                   Z
    ------   -----------------  -----------------  -----------------
       1        0.000323426614    -0.002137564314    -0.000429795712
       2        0.000277552727    -0.000408548803     0.000677888063
       3       -0.000873838217     0.001656384439    -0.001420048319
       4        0.000457856210    -0.000332057661     0.000980755241
       5        0.000038807812    -0.000000220102    -0.000081733295
       6       -0.000077993913    -0.000006353129    -0.000067577716
       7        0.000016145073     0.000040339167    -0.000010954961
       8        0.000024608652     0.000017243340    -0.000001908926
       9        0.000015570760    -0.000046860378     0.000002485594
      10        0.000008050213    -0.000008602980     0.000025802405
      11        0.000007075561     0.000004068322    -0.000024219306
      12       -0.000250396473     0.001281560530     0.000034866976
      13        0.000035875816    -0.000063881883     0.000152132898
      14        0.000021498299    -0.000039521250     0.000063945173
      15        0.000015239842     0.000044132881    -0.000025819447
      16       -0.000046800308    -0.000014418259     0.000019584556
      17        0.000019603557    -0.000003452573     0.000048309108
      18        0.000010808980     0.000017838613    -0.000020668244
      19        0.000038565069     0.000021578840    -0.000026497702
      20       -0.000075860308     0.000008496271    -0.000032305167
      21        0.000006816113     0.000007855307     0.000014477073
      22       -0.000036723762     0.000036227699    -0.000013444024

  **** Optimization is complete! (in 2 steps) ****
    Final optimized geometry and variables:
    Molecular point group: c1

    Geometry (in Angstrom), charge = 0, multiplicity = 1:

    C            1.988527236016     0.243295791822     0.006905963084
    N            0.858909742357     0.087803611021    -0.767485188405
    C           -0.421120613038    -0.063207760831    -0.132383296041
    C           -1.093395265145    -1.281452231269    -0.210351603858
    C            0.909567534116     0.078705533261    -2.231873661556
    C           -0.993705446322     1.007162210159     0.551401056787
    C           -2.349916552219    -1.421893024623     0.374343417388
    C           -2.926054470116    -0.351468192426     1.054758402438
    C           -2.242694217722     0.860143406041     1.147198757212
    H           -0.626382160402    -2.113335294922    -0.720342685286
    H           -0.450504138720     1.937951554501     0.626452537406
    C            3.280037331971     0.507614654110    -0.728151526010
    O            1.945111556135     0.198188951666     1.247940395820
    H           -0.101861157279    -0.046952497400    -2.608074547958
    H            1.302935156699     1.018409439325    -2.625228540412
    H            1.520324559749    -0.742108303523    -2.612862705122
    H           -2.870194792539    -2.367731504944     0.310104608766
    H           -2.681639626851     1.690081487522     1.683714366529
    H            3.528791752770    -0.292408384628    -1.427442606524
    H            3.228422969402     1.439697620829    -1.294555897095
    H           -3.897602291657    -0.462384919086     1.516417996231
    H            4.069845021027     0.587365150545     0.011968715864

*** Psi4 exiting successfully. Buy a developer a beer!
