                               Psi4 1.5 release

  ==> Input File <==

--------------------------------------------------------------------------
molecule {
0 1
 C    2.045207   -0.389063   -0.199391
 N    0.896829    0.325950   -0.658863
 C   -0.433925    0.116272   -0.094024
 C   -0.805739   -1.083371    0.579880
 C    0.958161    1.121173   -1.921337
 C   -1.395306    1.170094   -0.133989
 C   -2.082460   -1.229514    1.139650
 C   -3.019078   -0.194027    1.062569
 C   -2.668449    1.001972    0.429163
 H   -0.102064   -1.908753    0.664543
 H   -1.157451    2.129919   -0.596650
 C    3.403137    0.008929   -0.794276
 O    2.002287   -1.257527    0.671393
 H    0.009224    1.076329   -2.458023
 H    1.183863    2.164773   -1.696833
 H    1.712370    0.738418   -2.608510
 H   -2.344306   -2.164962    1.637304
 H   -3.389136    1.819921    0.369799
 H    3.562758   -0.487426   -1.751740
 H    3.494253    1.087811   -0.921581
 H   -4.012953   -0.316757    1.496877
 H    4.199458   -0.308868   -0.119698
}
set optking {
  frozen_dihedral = ("
    1 2 3 4
    12 1 2 3
  ")
}
set {
  geom_maxiter 400
  g_convergence GAU_LOOSE
  dynamic_level 1
}
memory 8.166666666666666GB
set_num_threads(2)
psi4_io.set_default_path("/scratch/bdw2292/Psi4-3_24_Index_0-farH_in17")
for _ in range(1):
  try:
    set opt_coordinates both
    optimize('wb97x-d/6-311G')
    break
  except OptimizationConvergenceError:
    break
  else:
    try:
      set opt_coordinates cartesian
      optimize('wb97x-d/6-311G')
      break
    except OptimizationConvergenceError:
      pass
clean()
--------------------------------------------------------------------------

    Molecular point group: c1
  Charge       = 0
  Multiplicity = 1
  Basis Set: 6-311G
    Blend: 6-311G
  Basis Set: (6-311G AUX)
    Blend: CC-PVTZ-JKFIT
  @DF-RKS Final Energy:  -479.37364317228435
    Total Energy =                       -479.3736431722844031
    Molecular point group: c1
  Basis Set: 6-311G
    Blend: 6-311G
  Basis Set: (6-311G AUX)
    Blend: CC-PVTZ-JKFIT
  Basis Set: 6-311G
    Blend: 6-311G
  Basis Set: (6-311G AUX)
    Blend: CC-PVTZ-JKFIT
  @DF-RKS Final Energy:  -479.37951743863476
    Total Energy =                       -479.3795174386347071
  Basis Set: 6-311G
    Blend: 6-311G
  Basis Set: (6-311G AUX)
    Blend: CC-PVTZ-JKFIT
  Basis Set: 6-311G
    Blend: 6-311G
  @DF-RKS Final Energy:  -479.38032297195940
    Total Energy =                       -479.3803229719593446
  @DF-RKS Final Energy:  -479.38061796117159
    Total Energy =                       -479.3806179611715379
  @DF-RKS Final Energy:  -479.38000434983542
    Total Energy =                       -479.3800043498354171
  @DF-RKS Final Energy:  -479.38061796480162
    Total Energy =                       -479.3806179648016723
  @DF-RKS Final Energy:  -479.38061831911875
    Total Energy =                       -479.3806183191187529
  @DF-RKS Final Energy:  -479.38066963222212
    Total Energy =                       -479.3806696322221228
  @DF-RKS Final Energy:  -479.38069604769180
    Total Energy =                       -479.3806960476917425
  Basis Set: (6-311G AUX)
    Blend: CC-PVTZ-JKFIT
  Basis Set: 6-311G
    Blend: 6-311G
  Basis Set: (6-311G AUX)
    Blend: CC-PVTZ-JKFIT
  @DF-RKS Final Energy:  -479.38069992396225
    Total Energy =                       -479.3806999239623110
  Basis Set: 6-311G
    Blend: 6-311G
  Basis Set: (6-311G AUX)
    Blend: CC-PVTZ-JKFIT
  Charge       = 0
  Multiplicity = 1
  Basis Set: 6-311G
    Blend: 6-311G
  Basis Set: (6-311G AUX)
    Blend: CC-PVTZ-JKFIT

    Orbital Energies [Eh]
    ---------------------

    Doubly Occupied:

       1A    -19.216339     2A    -14.488014     3A    -10.408596
       4A    -10.342468     5A    -10.332914     6A    -10.295789
       7A    -10.293871     8A    -10.292486     9A    -10.288296
      10A    -10.286417    11A    -10.282110    12A     -1.156300
      13A     -1.059676    14A     -0.961361    15A     -0.873848
      16A     -0.855428    17A     -0.839711    18A     -0.817022
      19A     -0.729559    20A     -0.704404    21A     -0.657556
      22A     -0.612390    23A     -0.588195    24A     -0.577687
      25A     -0.575845    26A     -0.543096    27A     -0.537021
      28A     -0.524316    29A     -0.510746    30A     -0.501014
      31A     -0.492987    32A     -0.484435    33A     -0.470982
      34A     -0.449830    35A     -0.443743    36A     -0.430297
      37A     -0.374032    38A     -0.337422    39A     -0.328342
      40A     -0.297041

  @DF-RKS Final Energy:  -479.38070061268229

   => Energetics <=

    Nuclear Repulsion Energy =            587.8254639127887913
    One-Electron Energy =               -1813.9289969085325538
    Two-Electron Energy =                 793.8200665896962391
    DFT Exchange-Correlation Energy =     -47.0847242381641777
    Empirical Dispersion Energy =          -0.0125099684705613
    VV10 Nonlocal Energy =                  0.0000000000000000
    Total Energy =                       -479.3807006126822898

  Dipole Moment: [D]
     X:    -0.0012      Y:     2.5677      Z:    -3.1781     Total:     4.0857

    Molecular point group: c1
  Basis Set: 6-311G
    Blend: 6-311G
  Basis Set: (6-311G AUX)
    Blend: CC-PVTZ-JKFIT

  -Total Gradient:
     Atom            X                  Y                   Z
    ------   -----------------  -----------------  -----------------
       1       -0.000521109201    -0.001852759553    -0.001477609257
       2        0.001172622023     0.003080320359     0.002985098914
       3       -0.001342957548    -0.002531550801    -0.003419322132
       4        0.000743438119     0.001114960509     0.001862679684
       5        0.000149759499    -0.000014756544    -0.000064423313
       6       -0.000196802757     0.000072846949     0.000052927060
       7       -0.000025220923    -0.000023562121    -0.000004146428
       8        0.000000668743    -0.000030801978    -0.000020249470
       9       -0.000015955082     0.000012892129    -0.000024796392
      10        0.000020871299    -0.000001225669    -0.000023305866
      11       -0.000085334702    -0.000079662302     0.000132690693
      12       -0.000046505812     0.000145511824     0.000099574486
      13        0.000003368934     0.000069218354    -0.000062342557
      14        0.000043622861    -0.000004048311    -0.000025054076
      15        0.000027357070    -0.000000225454    -0.000011739747
      16        0.000033786910     0.000015324330     0.000024580896
      17       -0.000003144920    -0.000012305442    -0.000029090159
      18       -0.000005787722    -0.000033783518     0.000015675670
      19       -0.000035337676     0.000000917272     0.000024312427
      20       -0.000004111333     0.000011294677    -0.000001501040
      21        0.000022915254    -0.000011837666    -0.000010537986
      22        0.000045074484    -0.000024422759     0.000017607290

  **** Optimization is complete! (in 6 steps) ****
    Final optimized geometry and variables:
    Molecular point group: c1

    Geometry (in Angstrom), charge = 0, multiplicity = 1:

    C            2.007603347226    -0.370019309424    -0.203824971556
    N            0.869460846026     0.273844559346    -0.663233514599
    C           -0.419343047480     0.121410029093    -0.052071278509
    C           -0.763990194576    -0.992818781022     0.727329352659
    C            0.949445946376     1.173365433731    -1.820264709229
    C           -1.372194609971     1.137756146845    -0.225656630581
    C           -2.035045312940    -1.084495643950     1.287935684412
    C           -2.982294668311    -0.082481663877     1.098336691964
    C           -2.639306879836     1.031565499365     0.339031799350
    H           -0.039638685231    -1.766410608126     0.902020173352
    H           -1.131577371928     2.029540372650    -0.783868193668
    C            3.323113542459    -0.030399524039    -0.869912481616
    O            1.992796531070    -1.187897029724     0.731684281923
    H            0.043867124621     1.074330941363    -2.414843869354
    H            1.063788639609     2.218134079430    -1.521118280560
    H            1.785477510017     0.904244795023    -2.455247956150
    H           -2.279832357075    -1.955076764384     1.881275546495
    H           -3.352585367611     1.830768820819     0.188925662247
    H            3.376078073245    -0.423526158561    -1.887219678740
    H            3.507748290952     1.043410717418    -0.908289650397
    H           -3.966049440151    -0.164902925164     1.538989155900
    H            4.102794761495    -0.504987947860    -0.282454009093

*** Psi4 exiting successfully. Buy a developer a beer!
