                               Psi4 1.5 release

  ==> Input File <==

--------------------------------------------------------------------------
molecule {
0 1
 C    1.873313    1.145312   -0.272843
 N    0.882566    0.220170   -0.721201
 C   -0.442110    0.155820   -0.110920
 C   -1.541974   -0.384568   -0.842425
 C    1.246082   -0.895398   -1.644762
 C   -0.670160    0.505840    1.251989
 C   -2.804004   -0.516458   -0.245380
 C   -3.010824   -0.137775    1.084513
 C   -1.940572    0.369294    1.827801
 H   -1.427235   -0.692490   -1.883799
 H    0.143127    0.886923    1.866838
 C    3.187772    1.207402   -1.061708
 O    1.698552    1.921068    0.666376
 H    1.006048   -0.623620   -2.673742
 H    2.304266   -1.148682   -1.587709
 H    0.702461   -1.805864   -1.387205
 H   -3.631100   -0.921011   -0.831774
 H   -2.089463    0.658708    2.869530
 H    3.869960    0.422585   -0.734307
 H    3.024037    1.127861   -2.136649
 H   -3.997942   -0.240054    1.539359
 H    3.673884    2.166232   -0.875720
}
set optking {
  frozen_dihedral = ("
    1 2 3 4
    12 1 2 3
  ")
}
set {
  geom_maxiter 400
  g_convergence GAU_LOOSE
  dynamic_level 1
}
memory 8.166666666666666GB
set_num_threads(2)
psi4_io.set_default_path("/scratch/bdw2292/Psi4-3_24_Index_0-farH_in17")
for _ in range(1):
  try:
    set opt_coordinates both
    optimize('wb97x-d/6-311G')
    break
  except OptimizationConvergenceError:
    break
  else:
    try:
      set opt_coordinates cartesian
      optimize('wb97x-d/6-311G')
      break
    except OptimizationConvergenceError:
      pass
clean()
--------------------------------------------------------------------------

    Molecular point group: c1
  Charge       = 0
  Multiplicity = 1
  Basis Set: 6-311G
    Blend: 6-311G
  Basis Set: (6-311G AUX)
    Blend: CC-PVTZ-JKFIT
  @DF-RKS Final Energy:  -479.37365046462889
    Total Energy =                       -479.3736504646288950
    Molecular point group: c1
  Basis Set: 6-311G
    Blend: 6-311G
  Basis Set: (6-311G AUX)
    Blend: CC-PVTZ-JKFIT
  Basis Set: 6-311G
    Blend: 6-311G
  Basis Set: (6-311G AUX)
    Blend: CC-PVTZ-JKFIT
  @DF-RKS Final Energy:  -479.37956751698846
    Total Energy =                       -479.3795675169884589
  Basis Set: 6-311G
    Blend: 6-311G
  Basis Set: (6-311G AUX)
    Blend: CC-PVTZ-JKFIT
  Basis Set: 6-311G
    Blend: 6-311G
  @DF-RKS Final Energy:  -479.38037399039450
    Total Energy =                       -479.3803739903944461
  @DF-RKS Final Energy:  -479.38064278281746
    Total Energy =                       -479.3806427828174606
  @DF-RKS Final Energy:  -479.38056810285008
    Total Energy =                       -479.3805681028501340
  @DF-RKS Final Energy:  -479.38064278888072
    Total Energy =                       -479.3806427888806638
  @DF-RKS Final Energy:  -479.38050326694059
    Total Energy =                       -479.3805032669405364
  @DF-RKS Final Energy:  -479.38072434192912
    Total Energy =                       -479.3807243419290671
  @DF-RKS Final Energy:  -479.38077610082559
    Total Energy =                       -479.3807761008255284
  @DF-RKS Final Energy:  -479.38076563895419
    Total Energy =                       -479.3807656389541876
  Basis Set: (6-311G AUX)
    Blend: CC-PVTZ-JKFIT
  Basis Set: 6-311G
    Blend: 6-311G
  Basis Set: (6-311G AUX)
    Blend: CC-PVTZ-JKFIT
  @DF-RKS Final Energy:  -479.38078218418866
    Total Energy =                       -479.3807821841886607
  Basis Set: 6-311G
    Blend: 6-311G
  Basis Set: (6-311G AUX)
    Blend: CC-PVTZ-JKFIT
  Charge       = 0
  Multiplicity = 1
  Basis Set: 6-311G
    Blend: 6-311G
  Basis Set: (6-311G AUX)
    Blend: CC-PVTZ-JKFIT

    Orbital Energies [Eh]
    ---------------------

    Doubly Occupied:

       1A    -19.216138     2A    -14.487756     3A    -10.408418
       4A    -10.342350     5A    -10.332833     6A    -10.295753
       7A    -10.293906     8A    -10.292581     9A    -10.288411
      10A    -10.286530    11A    -10.282373    12A     -1.156138
      13A     -1.059566    14A     -0.961411    15A     -0.873817
      16A     -0.855533    17A     -0.839770    18A     -0.817066
      19A     -0.729410    20A     -0.704498    21A     -0.657492
      22A     -0.612507    23A     -0.588187    24A     -0.577555
      25A     -0.575813    26A     -0.543208    27A     -0.537113
      28A     -0.524261    29A     -0.510903    30A     -0.500946
      31A     -0.493026    32A     -0.484331    33A     -0.470792
      34A     -0.450146    35A     -0.443433    36A     -0.430417
      37A     -0.373655    38A     -0.337732    39A     -0.328276
      40A     -0.297074

  @DF-RKS Final Energy:  -479.38078672812617

   => Energetics <=

    Nuclear Repulsion Energy =            587.8540853378876818
    One-Electron Energy =               -1813.9872157765867087
    Two-Electron Energy =                 793.8497515234045068
    DFT Exchange-Correlation Energy =     -47.0848918693368788
    Empirical Dispersion Energy =          -0.0125159434947190
    VV10 Nonlocal Energy =                  0.0000000000000000
    Total Energy =                       -479.3807867281261110

  Dipole Moment: [D]
     X:     0.7843      Y:    -2.9511      Z:    -2.7333     Total:     4.0981

    Molecular point group: c1
  Basis Set: 6-311G
    Blend: 6-311G
  Basis Set: (6-311G AUX)
    Blend: CC-PVTZ-JKFIT

  -Total Gradient:
     Atom            X                  Y                   Z
    ------   -----------------  -----------------  -----------------
       1        0.000690655691    -0.001617112135     0.001792848651
       2       -0.000627559625     0.001155306293    -0.001902692960
       3       -0.000290177728     0.002218116182    -0.000679211836
       4        0.000290962365    -0.001922561307     0.001026267345
       5        0.000089013625    -0.000021154694    -0.000098433382
       6        0.000001102967     0.000007293717    -0.000073446969
       7        0.000012882078    -0.000024046916    -0.000008054242
       8        0.000022265939     0.000014122193     0.000028311225
       9       -0.000038691836    -0.000034720076     0.000019826044
      10        0.000002444687     0.000017653863     0.000041032793
      11        0.000028797220     0.000002064432     0.000002918185
      12       -0.000087280784     0.000166995803    -0.000196619586
      13       -0.000020585902     0.000039030524     0.000053493159
      14        0.000055500023    -0.000040810510     0.000076481947
      15       -0.000105744481     0.000048867920    -0.000054300030
      16       -0.000002613682     0.000068787822    -0.000046435595
      17       -0.000020084231     0.000001382995     0.000024503119
      18        0.000007855308    -0.000013097116     0.000017726376
      19        0.000014692809     0.000040222711    -0.000017806786
      20       -0.000033150924    -0.000036197849     0.000036740999
      21        0.000001633811    -0.000011760254     0.000013058325
      22       -0.000018581408    -0.000015368011    -0.000020532257

  **** Optimization is complete! (in 5 steps) ****
    Final optimized geometry and variables:
    Molecular point group: c1

    Geometry (in Angstrom), charge = 0, multiplicity = 1:

    C            1.915639041269     0.730118852046    -0.115841688154
    N            0.975623710671    -0.202799526336    -0.524506444915
    C           -0.374914938548    -0.212874027661    -0.041580452953
    C           -1.365541350780    -0.830940824532    -0.820023962618
    C            1.332946094730    -1.226433949739    -1.513262329423
    C           -0.738302703952     0.323430126639     1.202794831349
    C           -2.680895478358    -0.905926805674    -0.372013372157
    C           -3.037833622078    -0.370284204459     0.861107410694
    C           -2.058305796859     0.243111366887     1.637184338829
    H           -1.129136220031    -1.236190912491    -1.792145749759
    H            0.000648559275     0.814814813833     1.808202434550
    C            3.271180255098     0.702111742164    -0.787292490398
    O            1.683772597304     1.587378981655     0.753586325848
    H            1.053409312833    -0.933135117728    -2.528015928090
    H            2.399078699519    -1.419486822449    -1.493034450745
    H            0.828014953458    -2.157181031883    -1.264248526104
    H           -3.424896154906    -1.381722059927    -0.996642726518
    H           -2.315925996470     0.665509102450     2.599038998409
    H            3.850844042558    -0.176034348959    -0.495473612739
    H            3.199217135931     0.718015182427    -1.874984182430
    H           -4.059575443718    -0.428039425561     1.209728080779
    H            3.804221842846     1.586414492019    -0.452818878386

*** Psi4 exiting successfully. Buy a developer a beer!
