                               Psi4 1.5 release

  ==> Input File <==

--------------------------------------------------------------------------
molecule {
0 1
 C    1.929927   -0.644557   -0.335160
 N    0.931646    0.293075   -0.562148
 C   -0.386231    0.204899    0.002037
 C   -0.741796   -0.741868    0.978429
 C    1.201769    1.468123   -1.398229
 C   -1.373270    1.107184   -0.432073
 C   -2.031010   -0.758810    1.502241
 C   -2.999652    0.144184    1.075205
 C   -2.658638    1.075287    0.101085
 H   -0.018406   -1.462267    1.309624
 H   -1.164847    1.840161   -1.194150
 C    3.310465   -0.379986   -0.899954
 O    1.746649   -1.685179    0.319528
 H    0.643365    1.419683   -2.334848
 H    0.924506    2.379446   -0.868407
 H    2.253405    1.533580   -1.639228
 H   -2.273075   -1.497111    2.254840
 H   -3.392526    1.785184   -0.256306
 H    3.313852   -0.322338   -1.989296
 H    3.747783    0.537796   -0.502959
 H   -3.998145    0.120027    1.488925
 H    3.930877   -1.217344   -0.596327
}
memory 8.166666666666666GB
set_num_threads(2)
psi4_io.set_default_path("/scratch/bdw2292/Psi4-3_24_Index_0-farH_in17")
set freeze_core True
E, wfn = energy('wb97x-d/6-311+G*',return_wfn=True)
oeprop(wfn,"WIBERG_LOWDIN_INDICES")
clean()
--------------------------------------------------------------------------

    Molecular point group: c1

    Geometry (in Angstrom), charge = 0, multiplicity = 1:

       Center              X                  Y                   Z               Mass
    ------------   -----------------  -----------------  -----------------  -----------------
         C            1.929926954649    -0.644556899037    -0.335159968211    12.000000000000
         N            0.931645954649     0.293075100963    -0.562147968211    14.003074004430
         C           -0.386231045351     0.204899100963     0.002037031789    12.000000000000
         C           -0.741796045351    -0.741867899037     0.978429031789    12.000000000000
         C            1.201768954649     1.468123100963    -1.398228968211    12.000000000000
         C           -1.373270045351     1.107184100963    -0.432072968211    12.000000000000
         C           -2.031010045351    -0.758809899037     1.502241031789    12.000000000000
         C           -2.999652045351     0.144184100963     1.075205031789    12.000000000000
         C           -2.658638045351     1.075287100963     0.101085031789    12.000000000000
         H           -0.018406045351    -1.462266899037     1.309624031789     1.007825032230
         H           -1.164847045351     1.840161100963    -1.194149968211     1.007825032230
         C            3.310464954649    -0.379985899037    -0.899953968211    12.000000000000
         O            1.746648954649    -1.685178899037     0.319528031789    15.994914619570
         H            0.643364954649     1.419683100963    -2.334847968211     1.007825032230
         H            0.924505954649     2.379446100963    -0.868406968211     1.007825032230
         H            2.253404954649     1.533580100963    -1.639227968211     1.007825032230
         H           -2.273075045351    -1.497110899037     2.254840031789     1.007825032230
         H           -3.392526045351     1.785184100963    -0.256305968211     1.007825032230
         H            3.313851954649    -0.322337899037    -1.989295968211     1.007825032230
         H            3.747782954649     0.537796100963    -0.502958968211     1.007825032230
         H           -3.998145045351     0.120027100963     1.488925031789     1.007825032230
         H            3.930876954649    -1.217343899037    -0.596326968211     1.007825032230

  Charge       = 0
  Multiplicity = 1
  Basis Set: 6-311+G*
    Blend: 6-311+G*
  Basis Set: (6-311+G* AUX)
    Blend: HEAVY-AUG-CC-PVTZ-JKFIT

    Orbital Energies [Eh]
    ---------------------

    Doubly Occupied:

       1A    -19.216982     2A    -14.488758     3A    -10.403023
       4A    -10.340456     5A    -10.331320     6A    -10.294924
       7A    -10.291624     8A    -10.290369     9A    -10.286103
      10A    -10.283857    11A    -10.278865    12A     -1.141154
      13A     -1.055289    14A     -0.956149    15A     -0.870112
      16A     -0.852047    17A     -0.836202    18A     -0.813768
      19A     -0.726838    20A     -0.700799    21A     -0.655282
      22A     -0.611348    23A     -0.588197    24A     -0.576409
      25A     -0.574760    26A     -0.544450    27A     -0.531583
      28A     -0.525690    29A     -0.506908    30A     -0.499836
      31A     -0.495488    32A     -0.481483    33A     -0.473460
      34A     -0.448766    35A     -0.444789    36A     -0.429104
      37A     -0.380279    38A     -0.339379    39A     -0.329975
      40A     -0.299305

  @DF-RKS Final Energy:  -479.51051702895887

   => Energetics <=

    Nuclear Repulsion Energy =            587.4070303188105981
    One-Electron Energy =               -1813.4778397566219610
    Two-Electron Energy =                 793.6654739664304543
    DFT Exchange-Correlation Energy =     -47.0928512844043965
    Empirical Dispersion Energy =          -0.0123302731735452
    VV10 Nonlocal Energy =                  0.0000000000000000
    Total Energy =                       -479.5105170289589296

  Dipole Moment: [D]
     X:     0.6764      Y:     3.3137      Z:    -2.0788     Total:     3.9698

*** Psi4 exiting successfully. Buy a developer a beer!
