                               Psi4 1.5 release

  ==> Input File <==

--------------------------------------------------------------------------
molecule {
0 1
 C    1.487341   -0.344285   -1.314989
 N    0.988663    0.482032   -0.325543
 C   -0.267376    0.190358    0.300801
 C   -0.342364    0.128391    1.693559
 C    1.789796    1.572749    0.236829
 C   -1.415448   -0.020006   -0.464139
 C   -1.561600   -0.120885    2.318684
 C   -2.708228   -0.329131    1.556741
 C   -2.627524   -0.283440    0.165782
 H    0.551019    0.267422    2.287427
 H   -1.348647    0.001223   -1.539860
 C    2.866716   -0.026625   -1.839365
 O    0.840028   -1.303758   -1.765931
 H    2.279926    2.137981   -0.553281
 H    1.127644    2.250459    0.769153
 H    2.552867    1.213030    0.932661
 H   -1.610251   -0.163255    3.398264
 H   -3.511539   -0.451483   -0.433894
 H    2.874084    0.916023   -2.390965
 H    3.608113    0.045119   -1.042624
 H   -3.653773   -0.530392    2.041007
 H    3.147230   -0.826101   -2.517650
}
memory 8.166666666666666GB
set_num_threads(2)
psi4_io.set_default_path("/scratch/bdw2292/Psi4-3_24_Index_0-farH_in17")
set freeze_core True
E, wfn = energy('wb97x-d/6-311+G*',return_wfn=True)
oeprop(wfn,"WIBERG_LOWDIN_INDICES")
clean()
--------------------------------------------------------------------------

    Molecular point group: c1

    Geometry (in Angstrom), charge = 0, multiplicity = 1:

       Center              X                  Y                   Z               Mass
    ------------   -----------------  -----------------  -----------------  -----------------
         C            1.487340953364    -0.344284998216    -1.314988942001    12.000000000000
         N            0.988662953364     0.482032001784    -0.325542942001    14.003074004430
         C           -0.267376046636     0.190358001784     0.300801057999    12.000000000000
         C           -0.342364046636     0.128391001784     1.693559057999    12.000000000000
         C            1.789795953364     1.572749001784     0.236829057999    12.000000000000
         C           -1.415448046636    -0.020005998216    -0.464138942001    12.000000000000
         C           -1.561600046636    -0.120884998216     2.318684057999    12.000000000000
         C           -2.708228046636    -0.329130998216     1.556741057999    12.000000000000
         C           -2.627524046636    -0.283439998216     0.165782057999    12.000000000000
         H            0.551018953364     0.267422001784     2.287427057999     1.007825032230
         H           -1.348647046636     0.001223001784    -1.539859942001     1.007825032230
         C            2.866715953364    -0.026624998216    -1.839364942001    12.000000000000
         O            0.840027953364    -1.303757998216    -1.765930942001    15.994914619570
         H            2.279925953364     2.137981001784    -0.553280942001     1.007825032230
         H            1.127643953364     2.250459001784     0.769153057999     1.007825032230
         H            2.552866953364     1.213030001784     0.932661057999     1.007825032230
         H           -1.610251046636    -0.163254998216     3.398264057999     1.007825032230
         H           -3.511539046636    -0.451482998216    -0.433893942001     1.007825032230
         H            2.874083953364     0.916023001784    -2.390964942001     1.007825032230
         H            3.608112953364     0.045119001784    -1.042623942001     1.007825032230
         H           -3.653773046636    -0.530391998216     2.041007057999     1.007825032230
         H            3.147229953364    -0.826100998216    -2.517649942001     1.007825032230

  Charge       = 0
  Multiplicity = 1
  Basis Set: 6-311+G*
    Blend: 6-311+G*
  Basis Set: (6-311+G* AUX)
    Blend: HEAVY-AUG-CC-PVTZ-JKFIT

    Orbital Energies [Eh]
    ---------------------

    Doubly Occupied:

       1A    -19.209389     2A    -14.475913     3A    -10.394428
       4A    -10.333442     5A    -10.329929     6A    -10.293893
       7A    -10.292870     8A    -10.291137     9A    -10.290252
      10A    -10.288966    11A    -10.287891    12A     -1.134076
      13A     -1.049106    14A     -0.958798    15A     -0.868450
      16A     -0.854106    17A     -0.836784    18A     -0.809002
      19A     -0.722461    20A     -0.707138    21A     -0.654566
      22A     -0.608762    23A     -0.583754    24A     -0.574760
      25A     -0.573552    26A     -0.539357    27A     -0.536375
      28A     -0.516403    29A     -0.512342    30A     -0.497926
      31A     -0.494836    32A     -0.485644    33A     -0.464719
      34A     -0.449104    35A     -0.442989    36A     -0.434165
      37A     -0.362125    38A     -0.342532    39A     -0.328959
      40A     -0.306140

  @DF-RKS Final Energy:  -479.51446547599494

   => Energetics <=

    Nuclear Repulsion Energy =            588.8019350683707671
    One-Electron Energy =               -1816.3917457343341084
    Two-Electron Energy =                 795.1790163450100408
    DFT Exchange-Correlation Energy =     -47.0908024397075593
    Empirical Dispersion Energy =          -0.0128687153340713
    VV10 Nonlocal Energy =                  0.0000000000000000
    Total Energy =                       -479.5144654759949390

  Dipole Moment: [D]
     X:     1.6298      Y:     3.1694      Z:     1.7231     Total:     3.9586

*** Psi4 exiting successfully. Buy a developer a beer!
