                               Psi4 1.5 release

  ==> Input File <==

--------------------------------------------------------------------------
molecule {
0 1
 C    1.988527    0.243296    0.006906
 N    0.858910    0.087804   -0.767485
 C   -0.421121   -0.063208   -0.132383
 C   -1.093395   -1.281452   -0.210352
 C    0.909568    0.078706   -2.231874
 C   -0.993705    1.007162    0.551401
 C   -2.349917   -1.421893    0.374343
 C   -2.926054   -0.351468    1.054758
 C   -2.242694    0.860143    1.147199
 H   -0.626382   -2.113335   -0.720343
 H   -0.450504    1.937952    0.626453
 C    3.280037    0.507615   -0.728152
 O    1.945112    0.198189    1.247940
 H   -0.101861   -0.046952   -2.608075
 H    1.302935    1.018409   -2.625229
 H    1.520325   -0.742108   -2.612863
 H   -2.870195   -2.367732    0.310105
 H   -2.681640    1.690081    1.683714
 H    3.528792   -0.292408   -1.427443
 H    3.228423    1.439698   -1.294556
 H   -3.897602   -0.462385    1.516418
 H    4.069845    0.587365    0.011969
}
memory 8.166666666666666GB
set_num_threads(2)
psi4_io.set_default_path("/scratch/bdw2292/Psi4-3_24_Index_0-farH_in17")
set freeze_core True
E, wfn = energy('wb97x-d/6-311+G*',return_wfn=True)
oeprop(wfn,"WIBERG_LOWDIN_INDICES")
clean()
--------------------------------------------------------------------------

    Molecular point group: c1

    Geometry (in Angstrom), charge = 0, multiplicity = 1:

       Center              X                  Y                   Z               Mass
    ------------   -----------------  -----------------  -----------------  -----------------
         C            1.988526886170     0.243295904470     0.006906154667    12.000000000000
         N            0.858909886170     0.087803904470    -0.767484845333    14.003074004430
         C           -0.421121113830    -0.063208095530    -0.132382845333    12.000000000000
         C           -1.093395113830    -1.281452095530    -0.210351845333    12.000000000000
         C            0.909567886170     0.078705904470    -2.231873845333    12.000000000000
         C           -0.993705113830     1.007161904470     0.551401154667    12.000000000000
         C           -2.349917113830    -1.421893095530     0.374343154667    12.000000000000
         C           -2.926054113830    -0.351468095530     1.054758154667    12.000000000000
         C           -2.242694113830     0.860142904470     1.147199154667    12.000000000000
         H           -0.626382113830    -2.113335095530    -0.720342845333     1.007825032230
         H           -0.450504113830     1.937951904470     0.626453154667     1.007825032230
         C            3.280036886170     0.507614904470    -0.728151845333    12.000000000000
         O            1.945111886170     0.198188904470     1.247940154667    15.994914619570
         H           -0.101861113830    -0.046952095530    -2.608074845333     1.007825032230
         H            1.302934886170     1.018408904470    -2.625228845333     1.007825032230
         H            1.520324886170    -0.742108095530    -2.612862845333     1.007825032230
         H           -2.870195113830    -2.367732095530     0.310105154667     1.007825032230
         H           -2.681640113830     1.690080904470     1.683714154667     1.007825032230
         H            3.528791886170    -0.292408095530    -1.427442845333     1.007825032230
         H            3.228422886170     1.439697904470    -1.294555845333     1.007825032230
         H           -3.897602113830    -0.462385095530     1.516418154667     1.007825032230
         H            4.069844886170     0.587364904470     0.011969154667     1.007825032230

  Charge       = 0
  Multiplicity = 1
  Basis Set: 6-311+G*
    Blend: 6-311+G*
  Basis Set: (6-311+G* AUX)
    Blend: HEAVY-AUG-CC-PVTZ-JKFIT

    Orbital Energies [Eh]
    ---------------------

    Doubly Occupied:

       1A    -19.205502     2A    -14.470541     3A    -10.390340
       4A    -10.332053     5A    -10.328516     6A    -10.294797
       7A    -10.294238     8A    -10.293299     9A    -10.292375
      10A    -10.292090    11A    -10.289085    12A     -1.130060
      13A     -1.045159    14A     -0.960407    15A     -0.867593
      16A     -0.855371    17A     -0.836739    18A     -0.806545
      19A     -0.720539    20A     -0.710910    21A     -0.654683
      22A     -0.607899    23A     -0.582739    24A     -0.574915
      25A     -0.571496    26A     -0.539045    27A     -0.537820
      28A     -0.515866    29A     -0.512070    30A     -0.498975
      31A     -0.493278    32A     -0.482974    33A     -0.460752
      34A     -0.448102    35A     -0.445369    36A     -0.433996
      37A     -0.349732    38A     -0.338362    39A     -0.331756
      40A     -0.315681

  @DF-RKS Final Energy:  -479.51349618186936

   => Energetics <=

    Nuclear Repulsion Energy =            588.2845911102539276
    One-Electron Energy =               -1815.4079011442772753
    Two-Electron Energy =                 794.7101177598487993
    DFT Exchange-Correlation Energy =     -47.0874287708831218
    Empirical Dispersion Energy =          -0.0128751368117876
    VV10 Nonlocal Energy =                  0.0000000000000000
    Total Energy =                       -479.5134961818693000

  Dipole Moment: [D]
     X:    -0.7696      Y:     0.1153      Z:    -3.9356     Total:     4.0118

*** Psi4 exiting successfully. Buy a developer a beer!
