                               Psi4 1.5 release

  ==> Input File <==

--------------------------------------------------------------------------
molecule {
0 1
 C    1.858169   -0.604301   -0.551251
 N    0.915339    0.408318   -0.537074
 C   -0.372022    0.225439    0.064974
 C   -0.528657   -0.496303    1.252342
 C    1.195914    1.709217   -1.154335
 C   -1.495339    0.797707   -0.540794
 C   -1.790544   -0.625374    1.823336
 C   -2.907326   -0.041619    1.228261
 C   -2.753226    0.670699    0.042595
 H    0.323773   -0.969699    1.708752
 H   -1.393843    1.329408   -1.476790
 C    3.220663   -0.272757   -1.113396
 O    1.624133   -1.739214   -0.102638
 H    1.038136    1.693967   -2.235689
 H    0.539036    2.456176   -0.716218
 H    2.219862    2.017053   -0.957534
 H   -1.897686   -1.186966    2.741296
 H   -3.611366    1.120089   -0.438525
 H    3.172890    0.119239   -2.130064
 H    3.735771    0.462269   -0.491051
 H   -3.884369   -0.146587    1.679161
 H    3.799172   -1.191207   -1.114887
}
memory 8.166666666666666GB
set_num_threads(2)
psi4_io.set_default_path("/scratch/bdw2292/Psi4-3_24_Index_0-farH_in17")
set freeze_core True
E, wfn = energy('wb97x-d/6-311+G*',return_wfn=True)
oeprop(wfn,"WIBERG_LOWDIN_INDICES")
clean()
--------------------------------------------------------------------------

    Molecular point group: c1

    Geometry (in Angstrom), charge = 0, multiplicity = 1:

       Center              X                  Y                   Z               Mass
    ------------   -----------------  -----------------  -----------------  -----------------
         C            1.858168917366    -0.604300984580    -0.551251067102    12.000000000000
         N            0.915338917366     0.408318015420    -0.537074067102    14.003074004430
         C           -0.372022082634     0.225439015420     0.064973932898    12.000000000000
         C           -0.528657082634    -0.496302984580     1.252341932898    12.000000000000
         C            1.195913917366     1.709217015420    -1.154335067102    12.000000000000
         C           -1.495339082634     0.797707015420    -0.540794067102    12.000000000000
         C           -1.790544082634    -0.625373984580     1.823335932898    12.000000000000
         C           -2.907326082634    -0.041618984580     1.228260932898    12.000000000000
         C           -2.753226082634     0.670699015420     0.042594932898    12.000000000000
         H            0.323772917366    -0.969698984580     1.708751932898     1.007825032230
         H           -1.393843082634     1.329408015420    -1.476790067102     1.007825032230
         C            3.220662917366    -0.272756984580    -1.113396067102    12.000000000000
         O            1.624132917366    -1.739213984580    -0.102638067102    15.994914619570
         H            1.038135917366     1.693967015420    -2.235689067102     1.007825032230
         H            0.539035917366     2.456176015420    -0.716218067102     1.007825032230
         H            2.219861917366     2.017053015420    -0.957534067102     1.007825032230
         H           -1.897686082634    -1.186965984580     2.741295932898     1.007825032230
         H           -3.611366082634     1.120089015420    -0.438525067102     1.007825032230
         H            3.172889917366     0.119239015420    -2.130064067102     1.007825032230
         H            3.735770917366     0.462269015420    -0.491051067102     1.007825032230
         H           -3.884369082634    -0.146586984580     1.679160932898     1.007825032230
         H            3.799171917366    -1.191206984580    -1.114887067102     1.007825032230

  Charge       = 0
  Multiplicity = 1
  Basis Set: 6-311+G*
    Blend: 6-311+G*
  Basis Set: (6-311+G* AUX)
    Blend: HEAVY-AUG-CC-PVTZ-JKFIT

    Orbital Energies [Eh]
    ---------------------

    Doubly Occupied:

       1A    -19.211695     2A    -14.479612     3A    -10.396842
       4A    -10.335643     5A    -10.330513     6A    -10.293007
       7A    -10.292367     8A    -10.292038     9A    -10.289025
      10A    -10.287195    11A    -10.285872    12A     -1.136157
      13A     -1.050924    14A     -0.958039    15A     -0.869058
      16A     -0.853572    17A     -0.836697    18A     -0.810432
      19A     -0.724229    20A     -0.705006    21A     -0.654704
      22A     -0.609139    23A     -0.584539    24A     -0.575643
      25A     -0.573593    26A     -0.540333    27A     -0.535568
      28A     -0.518972    29A     -0.511560    30A     -0.497579
      31A     -0.495245    32A     -0.485897    33A     -0.466619
      34A     -0.449352    35A     -0.442842    36A     -0.433627
      37A     -0.368965    38A     -0.343091    39A     -0.328946
      40A     -0.301658

  @DF-RKS Final Energy:  -479.51369996372250

   => Energetics <=

    Nuclear Repulsion Energy =            588.4793711794625324
    One-Electron Energy =               -1815.7077077036890387
    Two-Electron Energy =                 794.8185066739941931
    DFT Exchange-Correlation Energy =     -47.0911574617109210
    Empirical Dispersion Energy =          -0.0127126517793241
    VV10 Nonlocal Energy =                  0.0000000000000000
    Total Energy =                       -479.5136999637225586

  Dipole Moment: [D]
     X:     0.4862      Y:     3.7549      Z:    -1.2168     Total:     3.9770

*** Psi4 exiting successfully. Buy a developer a beer!
