                               Psi4 1.5 release

  ==> Input File <==

--------------------------------------------------------------------------
molecule {
0 1
 C    1.914775   -0.564787   -0.304886
 N    0.800622    0.076264   -0.814299
 C   -0.407711    0.154858   -0.046624
 C   -0.985148   -0.994572    0.496328
 C    0.859955    0.833660   -2.067823
 C   -1.037001    1.390262    0.121060
 C   -2.177587   -0.900682    1.206838
 C   -2.811592    0.330445    1.368692
 C   -2.238119    1.475196    0.821062
 H   -0.488673   -1.944560    0.380864
 H   -0.586180    2.285268   -0.286414
 C    3.177755   -0.502443   -1.130014
 O    1.893180   -1.169784    0.780192
 H   -0.153449    0.990399   -2.427131
 H    1.340712    1.807807   -1.944165
 H    1.400183    0.275930   -2.829452
 H   -2.613917   -1.794836    1.630837
 H   -2.717836    2.436914    0.944406
 H    3.075753   -1.070974   -2.056188
 H    3.453085    0.519039   -1.391872
 H   -3.740867    0.396728    1.917826
 H    3.971831   -0.945418   -0.539083
}
memory 8.166666666666666GB
set_num_threads(2)
psi4_io.set_default_path("/scratch/bdw2292/Psi4-3_24_Index_0-farH_in17")
set freeze_core True
E, wfn = energy('wb97x-d/6-311+G*',return_wfn=True)
oeprop(wfn,"WIBERG_LOWDIN_INDICES")
clean()
--------------------------------------------------------------------------

    Molecular point group: c1

    Geometry (in Angstrom), charge = 0, multiplicity = 1:

       Center              X                  Y                   Z               Mass
    ------------   -----------------  -----------------  -----------------  -----------------
         C            1.914775012117    -0.564787062729    -0.304885940601    12.000000000000
         N            0.800622012117     0.076263937271    -0.814298940601    14.003074004430
         C           -0.407710987883     0.154857937271    -0.046623940601    12.000000000000
         C           -0.985147987883    -0.994572062729     0.496328059399    12.000000000000
         C            0.859955012117     0.833659937271    -2.067822940601    12.000000000000
         C           -1.037000987883     1.390261937271     0.121060059399    12.000000000000
         C           -2.177586987883    -0.900682062729     1.206838059399    12.000000000000
         C           -2.811591987883     0.330444937271     1.368692059399    12.000000000000
         C           -2.238118987883     1.475195937271     0.821062059399    12.000000000000
         H           -0.488672987883    -1.944560062729     0.380864059399     1.007825032230
         H           -0.586179987883     2.285267937271    -0.286413940601     1.007825032230
         C            3.177755012117    -0.502443062729    -1.130013940601    12.000000000000
         O            1.893180012117    -1.169784062729     0.780192059399    15.994914619570
         H           -0.153448987883     0.990398937271    -2.427130940601     1.007825032230
         H            1.340712012117     1.807806937271    -1.944164940601     1.007825032230
         H            1.400183012117     0.275929937271    -2.829451940601     1.007825032230
         H           -2.613916987883    -1.794836062729     1.630837059399     1.007825032230
         H           -2.717835987883     2.436913937271     0.944406059399     1.007825032230
         H            3.075753012117    -1.070974062729    -2.056187940601     1.007825032230
         H            3.453085012117     0.519038937271    -1.391871940601     1.007825032230
         H           -3.740866987883     0.396727937271     1.917826059399     1.007825032230
         H            3.971831012117    -0.945418062729    -0.539082940601     1.007825032230

  Charge       = 0
  Multiplicity = 1
  Basis Set: 6-311+G*
    Blend: 6-311+G*
  Basis Set: (6-311+G* AUX)
    Blend: HEAVY-AUG-CC-PVTZ-JKFIT

    Orbital Energies [Eh]
    ---------------------

    Doubly Occupied:

       1A    -19.209658     2A    -14.476401     3A    -10.394765
       4A    -10.333825     5A    -10.330018     6A    -10.293923
       7A    -10.292905     8A    -10.291071     9A    -10.290197
      10A    -10.288871    11A    -10.287723    12A     -1.134146
      13A     -1.049177    14A     -0.958626    15A     -0.868475
      16A     -0.854030    17A     -0.836855    18A     -0.809261
      19A     -0.722567    20A     -0.706844    21A     -0.654513
      22A     -0.608870    23A     -0.583844    24A     -0.574720
      25A     -0.573666    26A     -0.539506    27A     -0.536238
      28A     -0.516680    29A     -0.512257    30A     -0.497842
      31A     -0.495024    32A     -0.485772    33A     -0.464947
      34A     -0.449303    35A     -0.442799    36A     -0.434118
      37A     -0.362867    38A     -0.342590    39A     -0.329020
      40A     -0.305597

  @DF-RKS Final Energy:  -479.51443134582678

   => Energetics <=

    Nuclear Repulsion Energy =            588.6443669452617087
    One-Electron Energy =               -1816.0720314094191963
    Two-Electron Energy =                 795.0162749710692651
    DFT Exchange-Correlation Energy =     -47.0901878383848498
    Empirical Dispersion Energy =          -0.0128540143536551
    VV10 Nonlocal Energy =                  0.0000000000000000
    Total Energy =                       -479.5144313458267220

  Dipole Moment: [D]
     X:    -0.4409      Y:     1.9955      Z:    -3.4122     Total:     3.9773

*** Psi4 exiting successfully. Buy a developer a beer!
