                               Psi4 1.5 release

  ==> Input File <==

--------------------------------------------------------------------------
molecule {
0 1
 C    1.999703   -0.149907   -0.029591
 N    0.857936    0.030319   -0.780361
 C   -0.420151    0.024528   -0.120847
 C   -1.044289   -1.183053    0.181897
 C    0.875854    0.400284   -2.196533
 C   -1.047492    1.231401    0.179699
 C   -2.297243   -1.182021    0.788462
 C   -2.930751    0.024061    1.084677
 C   -2.304509    1.230787    0.779645
 H   -0.536887   -2.109765   -0.044939
 H   -0.544422    2.162148   -0.045540
 C    3.319758   -0.023527   -0.751020
 O    1.946044   -0.406495    1.184566
 H   -0.077005    0.117216   -2.639641
 H    1.018810    1.475869   -2.341644
 H    1.663759   -0.131152   -2.727741
 H   -2.776723   -2.120223    1.031848
 H   -2.787959    2.168831    1.015768
 H    3.453756   -0.823678   -1.481818
 H    3.408474    0.929166   -1.275272
 H   -3.904308    0.023102    1.555374
 H    4.107722   -0.097337   -0.008169
}
memory 8.166666666666666GB
set_num_threads(2)
psi4_io.set_default_path("/scratch/bdw2292/Psi4-3_24_Index_0-farH_in17")
set freeze_core True
E, wfn = energy('wb97x-d/6-311+G*',return_wfn=True)
oeprop(wfn,"WIBERG_LOWDIN_INDICES")
clean()
--------------------------------------------------------------------------

    Molecular point group: c1

    Geometry (in Angstrom), charge = 0, multiplicity = 1:

       Center              X                  Y                   Z               Mass
    ------------   -----------------  -----------------  -----------------  -----------------
         C            1.999703011098    -0.149906958875    -0.029590980495    12.000000000000
         N            0.857936011098     0.030319041125    -0.780360980495    14.003074004430
         C           -0.420150988902     0.024528041125    -0.120846980495    12.000000000000
         C           -1.044288988902    -1.183052958875     0.181897019505    12.000000000000
         C            0.875854011098     0.400284041125    -2.196532980495    12.000000000000
         C           -1.047491988902     1.231401041125     0.179699019505    12.000000000000
         C           -2.297242988902    -1.182020958875     0.788462019505    12.000000000000
         C           -2.930750988902     0.024061041125     1.084677019505    12.000000000000
         C           -2.304508988902     1.230787041125     0.779645019505    12.000000000000
         H           -0.536886988902    -2.109764958875    -0.044938980495     1.007825032230
         H           -0.544421988902     2.162148041125    -0.045539980495     1.007825032230
         C            3.319758011098    -0.023526958875    -0.751019980495    12.000000000000
         O            1.946044011098    -0.406494958875     1.184566019505    15.994914619570
         H           -0.077004988902     0.117216041125    -2.639640980495     1.007825032230
         H            1.018810011098     1.475869041125    -2.341643980495     1.007825032230
         H            1.663759011098    -0.131151958875    -2.727740980495     1.007825032230
         H           -2.776722988902    -2.120222958875     1.031848019505     1.007825032230
         H           -2.787958988902     2.168831041125     1.015768019505     1.007825032230
         H            3.453756011098    -0.823677958875    -1.481817980495     1.007825032230
         H            3.408474011098     0.929166041125    -1.275271980495     1.007825032230
         H           -3.904307988902     0.023102041125     1.555374019505     1.007825032230
         H            4.107722011098    -0.097336958875    -0.008168980495     1.007825032230

  Charge       = 0
  Multiplicity = 1
  Basis Set: 6-311+G*
    Blend: 6-311+G*
  Basis Set: (6-311+G* AUX)
    Blend: HEAVY-AUG-CC-PVTZ-JKFIT

    Orbital Energies [Eh]
    ---------------------

    Doubly Occupied:

       1A    -19.204830     2A    -14.469208     3A    -10.389953
       4A    -10.331202     5A    -10.327962     6A    -10.295072
       7A    -10.294518     8A    -10.293993     9A    -10.293140
      10A    -10.292688    11A    -10.288873    12A     -1.129700
      13A     -1.044387    14A     -0.960503    15A     -0.867007
      16A     -0.855561    17A     -0.836754    18A     -0.806073
      19A     -0.719280    20A     -0.712171    21A     -0.654657
      22A     -0.607850    23A     -0.582594    24A     -0.574445
      25A     -0.571467    26A     -0.539189    27A     -0.536782
      28A     -0.516918    29A     -0.513251    30A     -0.497599
      31A     -0.492976    32A     -0.482607    33A     -0.459910
      34A     -0.448623    35A     -0.444930    36A     -0.433414
      37A     -0.343280    38A     -0.336784    39A     -0.331850
      40A     -0.322751

  @DF-RKS Final Energy:  -479.51361572729252

   => Energetics <=

    Nuclear Repulsion Energy =            588.2266727327640865
    One-Electron Energy =               -1815.3065948425105489
    Two-Electron Energy =                 794.6658862815287421
    DFT Exchange-Correlation Energy =     -47.0867306569255177
    Empirical Dispersion Energy =          -0.0128492421494680
    VV10 Nonlocal Energy =                  0.0000000000000000
    Total Energy =                       -479.5136157272925743

  Dipole Moment: [D]
     X:    -0.7881      Y:     0.8910      Z:    -3.8246     Total:     4.0053

*** Psi4 exiting successfully. Buy a developer a beer!
