                               Psi4 1.5 release

  ==> Input File <==

--------------------------------------------------------------------------
molecule {
0 1
 C    1.938008    0.603293   -0.023826
 N    0.908345   -0.043984   -0.683190
 C   -0.387752   -0.180870   -0.086906
 C   -1.096611   -1.373684   -0.259459
 C    1.114259   -0.638653   -2.007944
 C   -0.976694    0.869049    0.624190
 C   -2.379614   -1.513377    0.263929
 C   -2.964414   -0.468703    0.973482
 C   -2.254588    0.717448    1.152078
 H   -0.642232   -2.201405   -0.786442
 H   -0.428745    1.782413    0.782968
 C    3.232388    0.790348   -0.780141
 O    1.815534    1.043126    1.131614
 H    0.150996   -0.746600   -2.499422
 H    1.729824    0.007134   -2.629599
 H    1.589548   -1.620840   -1.948435
 H   -2.914202   -2.443055    0.123554
 H   -2.696914    1.535311    1.704249
 H    3.642894   -0.149517   -1.150508
 H    3.097421    1.459320   -1.632614
 H   -3.957775   -0.577998    1.386124
 H    3.942985    1.241630   -0.095229
}
memory 8.166666666666666GB
set_num_threads(2)
psi4_io.set_default_path("/scratch/bdw2292/Psi4-3_24_Index_0-farH_in17")
set freeze_core True
E, wfn = energy('wb97x-d/6-311+G*',return_wfn=True)
oeprop(wfn,"WIBERG_LOWDIN_INDICES")
clean()
--------------------------------------------------------------------------

    Molecular point group: c1

    Geometry (in Angstrom), charge = 0, multiplicity = 1:

       Center              X                  Y                   Z               Mass
    ------------   -----------------  -----------------  -----------------  -----------------
         C            1.938007911636     0.603293026358    -0.023826057490    12.000000000000
         N            0.908344911636    -0.043983973642    -0.683190057490    14.003074004430
         C           -0.387752088364    -0.180869973642    -0.086906057490    12.000000000000
         C           -1.096611088364    -1.373683973642    -0.259459057490    12.000000000000
         C            1.114258911636    -0.638652973642    -2.007944057490    12.000000000000
         C           -0.976694088364     0.869049026358     0.624189942510    12.000000000000
         C           -2.379614088364    -1.513376973642     0.263928942510    12.000000000000
         C           -2.964414088364    -0.468702973642     0.973481942510    12.000000000000
         C           -2.254588088364     0.717448026358     1.152077942510    12.000000000000
         H           -0.642232088364    -2.201404973642    -0.786442057490     1.007825032230
         H           -0.428745088364     1.782413026358     0.782967942510     1.007825032230
         C            3.232387911636     0.790348026358    -0.780141057490    12.000000000000
         O            1.815533911636     1.043126026358     1.131613942510    15.994914619570
         H            0.150995911636    -0.746599973642    -2.499422057490     1.007825032230
         H            1.729823911636     0.007134026358    -2.629599057490     1.007825032230
         H            1.589547911636    -1.620839973642    -1.948435057490     1.007825032230
         H           -2.914202088364    -2.443054973642     0.123553942510     1.007825032230
         H           -2.696914088364     1.535311026358     1.704248942510     1.007825032230
         H            3.642893911636    -0.149516973642    -1.150508057490     1.007825032230
         H            3.097420911636     1.459320026358    -1.632614057490     1.007825032230
         H           -3.957775088364    -0.577997973642     1.386123942510     1.007825032230
         H            3.942984911636     1.241630026358    -0.095229057490     1.007825032230

  Charge       = 0
  Multiplicity = 1
  Basis Set: 6-311+G*
    Blend: 6-311+G*
  Basis Set: (6-311+G* AUX)
    Blend: HEAVY-AUG-CC-PVTZ-JKFIT

    Orbital Energies [Eh]
    ---------------------

    Doubly Occupied:

       1A    -19.211442     2A    -14.479088     3A    -10.396480
       4A    -10.335467     5A    -10.330418     6A    -10.293127
       7A    -10.292187     8A    -10.292154     9A    -10.289248
      10A    -10.287437    11A    -10.286276    12A     -1.135974
      13A     -1.050620    14A     -0.958149    15A     -0.868979
      16A     -0.853689    17A     -0.836759    18A     -0.810299
      19A     -0.723949    20A     -0.705285    21A     -0.654637
      22A     -0.609171    23A     -0.584509    24A     -0.575453
      25A     -0.573542    26A     -0.540316    27A     -0.535745
      28A     -0.518731    29A     -0.511817    30A     -0.497605
      31A     -0.495234    32A     -0.485820    33A     -0.466284
      34A     -0.449344    35A     -0.442852    36A     -0.433805
      37A     -0.368294    38A     -0.343076    39A     -0.329065
      40A     -0.301996

  @DF-RKS Final Energy:  -479.51382970661649

   => Energetics <=

    Nuclear Repulsion Energy =            588.4863017114406603
    One-Electron Energy =               -1815.7247124886202982
    Two-Electron Energy =                 794.8284599397263719
    DFT Exchange-Correlation Energy =     -47.0911469523996686
    Empirical Dispersion Energy =          -0.0127319167636713
    VV10 Nonlocal Energy =                  0.0000000000000000
    Total Energy =                       -479.5138297066164910

  Dipole Moment: [D]
     X:     0.0041      Y:    -1.3915      Z:    -3.7349     Total:     3.9857

*** Psi4 exiting successfully. Buy a developer a beer!
