                               Psi4 1.5 release

  ==> Input File <==

--------------------------------------------------------------------------
molecule {
0 1
 C    1.839817   -0.707381   -0.683703
 N    0.870799    0.331640   -0.707318
 C   -0.429797    0.150905   -0.092297
 C   -0.588560   -0.547982    1.136561
 C    1.199747    1.697587   -1.195746
 C   -1.597542    0.637524   -0.743233
 C   -1.861651   -0.726444    1.694889
 C   -2.999650   -0.226110    1.051426
 C   -2.861714    0.451332   -0.165656
 H    0.281185   -0.953723    1.654058
 H   -1.525510    1.156520   -1.701313
 C    3.226933   -0.398748   -1.257923
 O    1.610829   -1.814804   -0.199616
 H    1.164266    1.724729   -2.285851
 H    0.492313    2.433630   -0.810671
 H    2.189294    2.011671   -0.863420
 H   -1.960665   -1.259024    2.642465
 H   -3.744101    0.841578   -0.676412
 H    3.163547    0.084934   -2.232707
 H    3.795511    0.229865   -0.572486
 H   -3.987539   -0.366080    1.494274
 H    3.779168   -1.330321   -1.389058
}
set optking {
  frozen_dihedral = ("
    1 2 3 4
    12 1 2 3
  ")
}
set {
  geom_maxiter 400
  g_convergence GAU_LOOSE
  dynamic_level 1
}
memory 8.166666666666666GB
set_num_threads(2)
psi4_io.set_default_path("/scratch/bdw2292/Psi4-3_24_Index_0-farH_in17")
for _ in range(1):
  try:
    set opt_coordinates both
    optimize('wb97x-d/6-311G')
    break
  except OptimizationConvergenceError:
    break
  else:
    try:
      set opt_coordinates cartesian
      optimize('wb97x-d/6-311G')
      break
    except OptimizationConvergenceError:
      pass
clean()
--------------------------------------------------------------------------

    Molecular point group: c1
  Charge       = 0
  Multiplicity = 1
  Basis Set: 6-311G
    Blend: 6-311G
  Basis Set: (6-311G AUX)
    Blend: CC-PVTZ-JKFIT
  @DF-RKS Final Energy:  -479.37594653668594
    Total Energy =                       -479.3759465366860013
    Molecular point group: c1
  Basis Set: 6-311G
    Blend: 6-311G
  Basis Set: (6-311G AUX)
    Blend: CC-PVTZ-JKFIT
  Basis Set: 6-311G
    Blend: 6-311G
  Basis Set: (6-311G AUX)
    Blend: CC-PVTZ-JKFIT
  @DF-RKS Final Energy:  -479.38073820124657
    Total Energy =                       -479.3807382012465155
  Basis Set: 6-311G
    Blend: 6-311G
  Basis Set: (6-311G AUX)
    Blend: CC-PVTZ-JKFIT
  Basis Set: 6-311G
    Blend: 6-311G
  @DF-RKS Final Energy:  -479.38074741074178
    Total Energy =                       -479.3807474107417761
  @DF-RKS Final Energy:  -479.38121368708261
    Total Energy =                       -479.3812136870826635
  @DF-RKS Final Energy:  -479.38132695902436
    Total Energy =                       -479.3813269590243067
  @DF-RKS Final Energy:  -479.38144883544118
    Total Energy =                       -479.3814488354411196
  @DF-RKS Final Energy:  -479.38137805097369
    Total Energy =                       -479.3813780509736944
  @DF-RKS Final Energy:  -479.38144883749737
    Total Energy =                       -479.3814488374973735
  @DF-RKS Final Energy:  -479.38143785058742
    Total Energy =                       -479.3814378505874174
  Basis Set: (6-311G AUX)
    Blend: CC-PVTZ-JKFIT
  Basis Set: 6-311G
    Blend: 6-311G
  Basis Set: (6-311G AUX)
    Blend: CC-PVTZ-JKFIT
  @DF-RKS Final Energy:  -479.38146319666555
    Total Energy =                       -479.3814631966654929
  Basis Set: 6-311G
    Blend: 6-311G
  Basis Set: (6-311G AUX)
    Blend: CC-PVTZ-JKFIT
  Charge       = 0
  Multiplicity = 1
  Basis Set: 6-311G
    Blend: 6-311G
  Basis Set: (6-311G AUX)
    Blend: CC-PVTZ-JKFIT

    Orbital Energies [Eh]
    ---------------------

    Doubly Occupied:

       1A    -19.211589     2A    -14.481474     3A    -10.404062
       4A    -10.339616     5A    -10.331885     6A    -10.294904
       7A    -10.293861     8A    -10.293755     9A    -10.290633
      10A    -10.288951    11A    -10.287567    12A     -1.152192
      13A     -1.056198    14A     -0.962849    15A     -0.872822
      16A     -0.856789    17A     -0.839993    18A     -0.814787
      19A     -0.727511    20A     -0.707438    21A     -0.657521
      22A     -0.611170    23A     -0.586871    24A     -0.577050
      25A     -0.573008    26A     -0.541332    27A     -0.539577
      28A     -0.520327    29A     -0.514320    30A     -0.499962
      31A     -0.494487    32A     -0.481689    33A     -0.467364
      34A     -0.449263    35A     -0.443252    36A     -0.433410
      37A     -0.366596    38A     -0.339739    39A     -0.327004
      40A     -0.298483

  @DF-RKS Final Energy:  -479.38147036878320

   => Energetics <=

    Nuclear Repulsion Energy =            588.4793769862534418
    One-Electron Energy =               -1815.2987164655855850
    Two-Electron Energy =                 794.5347505263682706
    DFT Exchange-Correlation Energy =     -47.0841687634588766
    Empirical Dispersion Energy =          -0.0127126523605112
    VV10 Nonlocal Energy =                  0.0000000000000000
    Total Energy =                       -479.3814703687831411

  Dipole Moment: [D]
     X:     0.5087      Y:     3.8949      Z:    -1.2144     Total:     4.1114

    Molecular point group: c1
  Basis Set: 6-311G
    Blend: 6-311G
  Basis Set: (6-311G AUX)
    Blend: CC-PVTZ-JKFIT

  -Total Gradient:
     Atom            X                  Y                   Z
    ------   -----------------  -----------------  -----------------
       1       -0.000028102743     0.000184200548    -0.000612278777
       2       -0.001545965027    -0.001846804255    -0.003528392280
       3        0.001165982624     0.002211997464     0.003148879078
       4       -0.000115283755    -0.000884993967    -0.000619689328
       5        0.000038494018     0.000027370276     0.000042902455
       6       -0.000018918624    -0.000003721365    -0.000016881613
       7       -0.000082157880    -0.000002935725    -0.000055868692
       8        0.000040935852    -0.000032000112     0.000047104821
       9        0.000081373647     0.000013462002    -0.000043069999
      10       -0.000020586962    -0.000041926936    -0.000038744519
      11        0.000031756146     0.000030089051     0.000027011518
      12        0.000409444311     0.000347076807     0.001407290058
      13        0.000004101238    -0.000106342128     0.000056787817
      14        0.000001269296     0.000044320878    -0.000002212195
      15       -0.000043003621     0.000032518209     0.000103635966
      16       -0.000041585990     0.000020199537     0.000119845311
      17       -0.000013259708    -0.000044247277    -0.000041579950
      18        0.000012203027     0.000020845205     0.000014983609
      19        0.000149048497     0.000004950013    -0.000050753797
      20       -0.000023223603     0.000022113004     0.000148937049
      21       -0.000008732851    -0.000018039783    -0.000032124405
      22        0.000024441899    -0.000057124146     0.000009386189

  **** Optimization is complete! (in 3 steps) ****
    Final optimized geometry and variables:
    Molecular point group: c1

    Geometry (in Angstrom), charge = 0, multiplicity = 1:

    C            1.858169198009    -0.604301425532    -0.551250733145
    N            0.915338702354     0.408317945997    -0.537074285689
    C           -0.372022072038     0.225439157974     0.064974431747
    C           -0.528657070088    -0.496302836184     1.252341598962
    C            1.195914042503     1.709217181732    -1.154335248849
    C           -1.495339493391     0.797706725598    -0.540794374950
    C           -1.790543740184    -0.625373563303     1.823335714938
    C           -2.907326206573    -0.041619168937     1.228260755713
    C           -2.753226030016     0.670699404158     0.042594970431
    H            0.323772903581    -0.969698879860     1.708751940142
    H           -1.393842754163     1.329408212691    -1.476789589469
    C            3.220663125682    -0.272757383700    -1.113396060534
    O            1.624132718942    -1.739213833194    -0.102637660834
    H            1.038135614057     1.693966711390    -2.235689329713
    H            0.539035660511     2.456175950998    -0.716217755183
    H            2.219862031814     2.017052595381    -0.957533674228
    H           -1.897686055541    -1.186966349159     2.741295656196
    H           -3.611365625635     1.120089237570    -0.438524847887
    H            3.172889592300     0.119238782806    -2.130064034179
    H            3.735771091752     0.462269162963    -0.491051010490
    H           -3.884368776424    -0.146586847710     1.679160754687
    H            3.799171620395    -1.191207286170    -1.114887189314

*** Psi4 exiting successfully. Buy a developer a beer!
