                               Psi4 1.5 release

  ==> Input File <==

--------------------------------------------------------------------------
molecule {
0 1
 C    2.033429   -0.174150   -0.052014
 N    0.873360    0.306373   -0.705421
 C   -0.425328    0.128945   -0.103152
 C   -0.871579   -1.148603    0.327611
 C    0.907883    0.860347   -2.081357
 C   -1.281912    1.246622    0.075803
 C   -2.138549   -1.294683    0.909058
 C   -2.979856   -0.186785    1.073741
 C   -2.547066    1.078418    0.656691
 H   -0.226516   -2.021196    0.213539
 H   -0.962785    2.243682   -0.235072
 C    3.387840    0.149602   -0.691044
 O    1.980362   -0.803388    1.003079
 H   -0.083131    0.831356   -2.537909
 H    1.243650    1.898246   -2.061556
 H    1.574141    0.281807   -2.722523
 H   -2.469005   -2.283306    1.232474
 H   -3.197258    1.946441    0.781018
 H    3.573748   -0.497859   -1.548135
 H    3.449092    1.192901   -1.001381
 H   -3.965756   -0.308535    1.526482
 H    4.181917   -0.024944    0.036332
}
set optking {
  frozen_dihedral = ("
    1 2 3 4
    12 1 2 3
  ")
}
set {
  geom_maxiter 400
  g_convergence GAU_LOOSE
  dynamic_level 1
}
memory 8.166666666666666GB
set_num_threads(2)
psi4_io.set_default_path("/scratch/bdw2292/Psi4-3_24_Index_0-farH_in17")
for _ in range(1):
  try:
    set opt_coordinates both
    optimize('wb97x-d/6-311G')
    break
  except OptimizationConvergenceError:
    break
  else:
    try:
      set opt_coordinates cartesian
      optimize('wb97x-d/6-311G')
      break
    except OptimizationConvergenceError:
      pass
clean()
--------------------------------------------------------------------------

    Molecular point group: c1
  Charge       = 0
  Multiplicity = 1
  Basis Set: 6-311G
    Blend: 6-311G
  Basis Set: (6-311G AUX)
    Blend: CC-PVTZ-JKFIT
  @DF-RKS Final Energy:  -479.37642982143979
    Total Energy =                       -479.3764298214397286
    Molecular point group: c1
  Basis Set: 6-311G
    Blend: 6-311G
  Basis Set: (6-311G AUX)
    Blend: CC-PVTZ-JKFIT
  Basis Set: 6-311G
    Blend: 6-311G
  Basis Set: (6-311G AUX)
    Blend: CC-PVTZ-JKFIT
  @DF-RKS Final Energy:  -479.37947739071961
    Total Energy =                       -479.3794773907196713
  Basis Set: 6-311G
    Blend: 6-311G
  Basis Set: (6-311G AUX)
    Blend: CC-PVTZ-JKFIT
  Basis Set: 6-311G
    Blend: 6-311G
  @DF-RKS Final Energy:  -479.38164462253781
    Total Energy =                       -479.3816446225378627
  @DF-RKS Final Energy:  -479.38154866014588
    Total Energy =                       -479.3815486601458247
  @DF-RKS Final Energy:  -479.38186315831939
    Total Energy =                       -479.3818631583193905
  @DF-RKS Final Energy:  -479.38164408573141
    Total Energy =                       -479.3816440857314092
  @DF-RKS Final Energy:  -479.38186315002457
    Total Energy =                       -479.3818631500245715
  @DF-RKS Final Energy:  -479.38181145772495
    Total Energy =                       -479.3818114577249503
  Basis Set: (6-311G AUX)
    Blend: CC-PVTZ-JKFIT
  Basis Set: 6-311G
    Blend: 6-311G
  Basis Set: (6-311G AUX)
    Blend: CC-PVTZ-JKFIT
  @DF-RKS Final Energy:  -479.38190231639652
    Total Energy =                       -479.3819023163965767
  Basis Set: 6-311G
    Blend: 6-311G
  Basis Set: (6-311G AUX)
    Blend: CC-PVTZ-JKFIT
  Charge       = 0
  Multiplicity = 1
  Basis Set: 6-311G
    Blend: 6-311G
  Basis Set: (6-311G AUX)
    Blend: CC-PVTZ-JKFIT

    Orbital Energies [Eh]
    ---------------------

    Doubly Occupied:

       1A    -19.209085     2A    -14.477974     3A    -10.401694
       4A    -10.337752     5A    -10.331293     6A    -10.295932
       7A    -10.294700     8A    -10.292411     9A    -10.291867
      10A    -10.290741    11A    -10.289503    12A     -1.149853
      13A     -1.054386    14A     -0.963506    15A     -0.872166
      16A     -0.857270    17A     -0.840058    18A     -0.813573
      19A     -0.725781    20A     -0.709292    21A     -0.657351
      22A     -0.610795    23A     -0.586337    24A     -0.576617
      25A     -0.572260    26A     -0.541053    27A     -0.539515
      28A     -0.518158    29A     -0.514976    30A     -0.499551
      31A     -0.495340    32A     -0.480742    33A     -0.465440
      34A     -0.449285    35A     -0.443089    36A     -0.433908
      37A     -0.360368    38A     -0.339590    39A     -0.326486
      40A     -0.302370

  @DF-RKS Final Energy:  -479.38191897932603

   => Energetics <=

    Nuclear Repulsion Energy =            588.6443495608458534
    One-Electron Energy =               -1815.6680114613143360
    Two-Electron Energy =                 794.7382459418768121
    DFT Exchange-Correlation Energy =     -47.0836490066689208
    Empirical Dispersion Energy =          -0.0128540140653194
    VV10 Nonlocal Energy =                  0.0000000000000000
    Total Energy =                       -479.3819189793260307

  Dipole Moment: [D]
     X:    -0.4816      Y:     2.0450      Z:    -3.5312     Total:     4.1089

    Molecular point group: c1
  Basis Set: 6-311G
    Blend: 6-311G
  Basis Set: (6-311G AUX)
    Blend: CC-PVTZ-JKFIT

  -Total Gradient:
     Atom            X                  Y                   Z
    ------   -----------------  -----------------  -----------------
       1       -0.000091733030     0.000289524883    -0.000316677094
       2       -0.000622330879    -0.001264043272    -0.000791311873
       3        0.000856339630     0.000730714623     0.001472171584
       4       -0.000418010104    -0.000063906726    -0.000775272079
       5       -0.000052960838     0.000068569147    -0.000262298943
       6       -0.000024537939     0.000100874092     0.000026313075
       7       -0.000143842016     0.000010753747     0.000076034929
       8       -0.000015209117    -0.000202099959     0.000055473479
       9        0.000217577852     0.000040128666    -0.000166860183
      10        0.000006802144    -0.000146317214    -0.000008094972
      11       -0.000013401041     0.000043939531    -0.000103220827
      12        0.000602010702     0.000191864958     0.000036533450
      13        0.000055206223    -0.000086438132     0.000379982813
      14        0.000209322942    -0.000056008179     0.000080539604
      15       -0.000088310246    -0.000146193080    -0.000182523121
      16       -0.000191299194     0.000206440698     0.000147964267
      17       -0.000054422949    -0.000070237439     0.000036256230
      18       -0.000057024467     0.000140044453    -0.000009180142
      19        0.000054966528     0.000209217343     0.000388028618
      20       -0.000046224073    -0.000507561366     0.000066195550
      21       -0.000108313205     0.000003228242     0.000062024783
      22       -0.000477014720     0.000241708501    -0.000376934096

  **** Optimization is complete! (in 3 steps) ****
    Final optimized geometry and variables:
    Molecular point group: c1

    Geometry (in Angstrom), charge = 0, multiplicity = 1:

    C            1.914775390966    -0.564787025672    -0.304885503334
    N            0.800621546973     0.076263773262    -0.814299492022
    C           -0.407710914086     0.154858367403    -0.046624015946
    C           -0.985147821412    -0.994571669444     0.496328373659
    C            0.859955332487     0.833659630959    -2.067822769184
    C           -1.037001209005     1.390262485627     0.121059970058
    C           -2.177587410361    -0.900682096972     1.206838373966
    C           -2.811592203144     0.330444796550     1.368691705921
    C           -2.238118762283     1.475195611338     0.821062306476
    H           -0.488672739056    -1.944559821158     0.380864232478
    H           -0.586179500594     2.285267574843    -0.286413788756
    C            3.177755135477    -0.502443123545    -1.130014213700
    O            1.893180109318    -1.169784465158     0.780192005272
    H           -0.153449144682     0.990399449271    -2.427130828885
    H            1.340712013909     1.807807366024    -1.944164875877
    H            1.400182628176     0.275930274577    -2.829451887346
    H           -2.613917065663    -1.794835598269     1.630836660963
    H           -2.717835847528     2.436914452901     0.944406267155
    H            3.075752549609    -1.070973966651    -2.056188400187
    H            3.453085191516     0.519038983791    -1.391871731973
    H           -3.740867012866     0.396728252143     1.917826103089
    H            3.971830865750    -0.945418431063    -0.539082831840

*** Psi4 exiting successfully. Buy a developer a beer!
