                               Psi4 1.5 release

  ==> Input File <==

--------------------------------------------------------------------------
molecule {
0 1
 C    1.549848   -0.628706   -1.378024
 N    0.938722    0.331241   -0.538528
 C   -0.389316    0.098130   -0.028948
 C   -0.643758    0.196396    1.363952
 C    1.542983    1.660143   -0.276236
 C   -1.478332   -0.146302   -0.906347
 C   -1.946481    0.027076    1.854824
 C   -3.012114   -0.228684    0.982277
 C   -2.772657   -0.313123   -0.395354
 H    0.170923    0.400307    2.061950
 H   -1.309614   -0.213423   -1.982402
 C    3.002979   -0.379564   -1.794463
 O    0.963071   -1.644665   -1.745871
 H    1.980307    2.079191   -1.183179
 H    0.790377    2.368050    0.075179
 H    2.316891    1.578376    0.488213
 H   -2.125993    0.100018    2.929018
 H   -3.598770   -0.506431   -1.081826
 H    3.053512    0.370737   -2.583640
 H    3.617189   -0.064035   -0.950891
 H   -4.023214   -0.359702    1.372710
 H    3.430126   -1.303732   -2.186147
}
set optking {
  frozen_dihedral = ("
    1 2 3 4
    12 1 2 3
  ")
}
set {
  geom_maxiter 400
  g_convergence GAU_LOOSE
  dynamic_level 1
}
memory 8.166666666666666GB
set_num_threads(2)
psi4_io.set_default_path("/scratch/bdw2292/Psi4-3_24_Index_0-farH_in17")
for _ in range(1):
  try:
    set opt_coordinates both
    optimize('wb97x-d/6-311G')
    break
  except OptimizationConvergenceError:
    break
  else:
    try:
      set opt_coordinates cartesian
      optimize('wb97x-d/6-311G')
      break
    except OptimizationConvergenceError:
      pass
clean()
--------------------------------------------------------------------------

    Molecular point group: c1
  Charge       = 0
  Multiplicity = 1
  Basis Set: 6-311G
    Blend: 6-311G
  Basis Set: (6-311G AUX)
    Blend: CC-PVTZ-JKFIT
  @DF-RKS Final Energy:  -479.37641568376620
    Total Energy =                       -479.3764156837661972
    Molecular point group: c1
  Basis Set: 6-311G
    Blend: 6-311G
  Basis Set: (6-311G AUX)
    Blend: CC-PVTZ-JKFIT
  Basis Set: 6-311G
    Blend: 6-311G
  Basis Set: (6-311G AUX)
    Blend: CC-PVTZ-JKFIT
  @DF-RKS Final Energy:  -479.38095844546734
    Total Energy =                       -479.3809584454673427
  Basis Set: 6-311G
    Blend: 6-311G
  Basis Set: (6-311G AUX)
    Blend: CC-PVTZ-JKFIT
  Basis Set: 6-311G
    Blend: 6-311G
  @DF-RKS Final Energy:  -479.37723076027146
    Total Energy =                       -479.3772307602715159
  @DF-RKS Final Energy:  -479.38156211684657
    Total Energy =                       -479.3815621168465668
  @DF-RKS Final Energy:  -479.38121689663484
    Total Energy =                       -479.3812168966348395
  @DF-RKS Final Energy:  -479.38156210937046
    Total Energy =                       -479.3815621093704635
  @DF-RKS Final Energy:  -479.38159694658037
    Total Energy =                       -479.3815969465803732
  @DF-RKS Final Energy:  -479.38182664890138
    Total Energy =                       -479.3818266489014377
  Basis Set: (6-311G AUX)
    Blend: CC-PVTZ-JKFIT
  Basis Set: 6-311G
    Blend: 6-311G
  Basis Set: (6-311G AUX)
    Blend: CC-PVTZ-JKFIT
  @DF-RKS Final Energy:  -479.38187562841011
    Total Energy =                       -479.3818756284100573
  Basis Set: 6-311G
    Blend: 6-311G
  Basis Set: (6-311G AUX)
    Blend: CC-PVTZ-JKFIT
  Charge       = 0
  Multiplicity = 1
  Basis Set: 6-311G
    Blend: 6-311G
  Basis Set: (6-311G AUX)
    Blend: CC-PVTZ-JKFIT

    Orbital Energies [Eh]
    ---------------------

    Doubly Occupied:

       1A    -19.208763     2A    -14.477449     3A    -10.401343
       4A    -10.337371     5A    -10.331189     6A    -10.295908
       7A    -10.294673     8A    -10.292455     9A    -10.291934
      10A    -10.290852    11A    -10.289692    12A     -1.149758
      13A     -1.054301    14A     -0.963691    15A     -0.872140
      16A     -0.857354    17A     -0.839980    18A     -0.813305
      19A     -0.725664    20A     -0.709591    21A     -0.657413
      22A     -0.610674    23A     -0.586262    24A     -0.576657
      25A     -0.572106    26A     -0.541074    27A     -0.539467
      28A     -0.517949    29A     -0.515000    30A     -0.499588
      31A     -0.495173    32A     -0.480573    33A     -0.465204
      34A     -0.449080    35A     -0.443272    36A     -0.433958
      37A     -0.359621    38A     -0.339569    39A     -0.326359
      40A     -0.302894

  @DF-RKS Final Energy:  -479.38188387156737

   => Energetics <=

    Nuclear Repulsion Energy =            588.8019394359452008
    One-Electron Energy =               -1815.9881789846367610
    Two-Electron Energy =                 794.9015404122689006
    DFT Exchange-Correlation Energy =     -47.0843160204330786
    Empirical Dispersion Energy =          -0.0128687147117241
    VV10 Nonlocal Energy =                  0.0000000000000000
    Total Energy =                       -479.3818838715673678

  Dipole Moment: [D]
     X:     1.6553      Y:     3.2929      Z:     1.7778     Total:     4.0919

    Molecular point group: c1
  Basis Set: 6-311G
    Blend: 6-311G
  Basis Set: (6-311G AUX)
    Blend: CC-PVTZ-JKFIT

  -Total Gradient:
     Atom            X                  Y                   Z
    ------   -----------------  -----------------  -----------------
       1        0.000290785452    -0.000202164304     0.000612928954
       2       -0.000595854231     0.000176168649    -0.001165372454
       3       -0.000161858004     0.001135752799     0.000472264410
       4        0.000191759396    -0.000944754259    -0.000099376280
       5       -0.000032228325     0.000045882276     0.000005878120
       6        0.000053599879     0.000021466208     0.000091194747
       7        0.000057184195     0.000010972980    -0.000063261783
       8        0.000009023564     0.000035439399    -0.000091110356
       9       -0.000021591858     0.000001665544     0.000115586415
      10        0.000021208525     0.000033939304    -0.000085417628
      11        0.000004575745    -0.000011061610     0.000034435541
      12       -0.000089579051    -0.000192610262     0.000130632094
      13        0.000098596531     0.000113061551    -0.000007177378
      14       -0.000081996184    -0.000026623826     0.000021792129
      15        0.000005472530    -0.000076308651    -0.000051494231
      16       -0.000054986296     0.000066510212     0.000002071779
      17       -0.000015143715     0.000011616148    -0.000034065916
      18       -0.000004367414    -0.000013541559     0.000028073066
      19       -0.000044886652     0.000002091954     0.000010145944
      20        0.000042001612     0.000061153520    -0.000011279574
      21        0.000021784231    -0.000009031264     0.000000284582
      22       -0.000066506399     0.000045843972    -0.000019381419

  **** Optimization is complete! (in 5 steps) ****
    Final optimized geometry and variables:
    Molecular point group: c1

    Geometry (in Angstrom), charge = 0, multiplicity = 1:

    C            1.487341179211    -0.344284785484    -1.314989231147
    N            0.988663055938     0.482031781096    -0.325542606685
    C           -0.267376283117     0.190358328525     0.300801108552
    C           -0.342363832049     0.128390888508     1.693558837297
    C            1.789795729969     1.572748708492     0.236829025656
    C           -1.415447874386    -0.020006064072    -0.464139249110
    C           -1.561600339427    -0.120885091418     2.318683716171
    C           -2.708227702271    -0.329130717793     1.556741485616
    C           -2.627524497918    -0.283439836807     0.165781817435
    H            0.551018562704     0.267422361452     2.287427453742
    H           -1.348647029687     0.001223088614    -1.539860398803
    C            2.866715793543    -0.026625053982    -1.839364801319
    O            0.840028163704    -1.303758174568    -1.765930533339
    H            2.279926483653     2.137981205358    -0.553281355916
    H            1.127643502865     2.250458788203     0.769152910261
    H            2.552867022178     1.213030318707     0.932661202059
    H           -1.610250956137    -0.163254699308     3.398264413536
    H           -3.511538840342    -0.451482554795    -0.433894034019
    H            2.874083979973     0.916022681111    -2.390965123436
    H            3.608112894626     0.045119362741    -1.042624374432
    H           -3.653773233766    -0.530392413867     2.041006714107
    H            3.147230180293    -0.826100538841    -2.517650235539

*** Psi4 exiting successfully. Buy a developer a beer!
