                               Psi4 1.3.2 release

  ==> Input File <==

--------------------------------------------------------------------------
molecule {
1 1
N 1.222140858082 1.192158561459 1.178331490527
N 4.167388667351 -1.248676273140 2.956171436156
N -3.911617145246 -1.003587244425 0.213998925645
N -7.538697781257 -0.085105392812 0.050314743846
C 3.274053977909 -0.069879698420 1.211261009112
C 4.596191145348 -0.551363183765 0.823639514286
C 2.356176129779 0.682968997227 0.532301325602
C 3.074425284938 -0.469714162406 2.634311837729
C 5.100019072943 -1.284444658101 1.921106256583
C 5.383264283969 -0.421474489764 -0.318746010349
C 2.463060217810 1.017272894084 -0.897955778013
C 6.348174096874 -1.893569038940 1.902215222481
C 6.644094580945 -1.025839694263 -0.344444866466
C 2.642095044454 0.021450152718 -1.869090853296
C 2.301500847397 2.351594849989 -1.294682247029
C -0.044317054886 0.619801844586 0.894439316089
C 2.712921778899 0.364995532601 -3.216714636906
C 2.379724956752 2.690172748816 -2.643832371227
C -0.217532651927 -0.491702017125 0.067108170501
C -1.173849291718 1.207806112187 1.476342588192
C 2.583284579501 1.699810617408 -3.606306818380
C -1.492326713235 -1.003847894493 -0.163510795361
C -2.443166545814 0.686559921076 1.270933835686
C -2.621850827254 -0.400458439100 0.400616177061
C -5.050947053381 -0.252815831313 0.209786387033
C -3.926268527202 -2.428330880278 -0.119526289566
C -6.394763932795 -0.982359724321 0.008137419575
C -7.816837139114 0.517683619787 1.350260326215
C -7.576237216589 0.920417306769 -1.012234012445
C -9.323115878629 0.829640331032 1.385567233583
C -8.870088314614 1.729823217905 -0.834457105705
C -11.262978042429 1.304852055595 -0.124819274011
C 7.120413152058 -1.763018624366 0.750179799737
C 7.440067156501 -0.863856789222 -1.588283417881
C 9.495253036016 -1.302072493427 -2.653638447358
O 2.148733947397 -0.187914731051 3.404700654260
O -5.076874895405 0.971777000349 0.399290552842
O 8.668399107622 -1.423047941353 -1.479199458388
O 7.041943462866 -0.289030887454 -2.590515058057
N -9.826811229121 0.888455047988 -0.033835833128
H -11.418212269759 1.865095603234 -1.045144173373
H 5.061321053400 0.145493175936 -1.185130407718
H 1.364994854950 1.167390411538 2.194692885112
H 4.314510418508 -1.597090639368 3.896793987548
H 6.715707363168 -2.454517759926 2.757990653988
H 2.755385854966 -1.015942232170 -1.559934460599
H 2.131277622270 3.111831645313 -0.537031586057
H 2.862067555173 -0.408961825555 -3.965087955892
H 2.276966247855 3.729145542518 -2.946408705779
H 0.641546091907 -0.993384899578 -0.363762448719
H -1.043297575094 2.069141924407 2.127205750565
H 2.646123957098 1.967294674016 -4.657843734047
H -1.581865191130 -1.861837029376 -0.820377111734
H -3.293246305138 1.152304291126 1.748900502603
H -3.343518404624 -2.974509437430 0.624839632211
H -6.543562474663 -1.745161015904 0.780425275861
H -7.216104728965 1.417063382442 1.530193163014
H -7.592672572044 0.391923932082 -1.972085762526
H -9.543558444062 1.795510341325 1.845349326269
H -9.335737746599 1.975293837694 -1.790363567137
H -11.896537688142 0.419577007817 -0.092741502257
H -3.521404018996 -2.612989543136 -1.117012142284
H -6.418057221749 -1.496261926059 -0.960614726010
H -7.576075897314 -0.198973013811 2.139214010562
H -6.715923274407 1.596964056265 -0.997376986498
H -9.904080952390 0.053385740436 1.889879396770
H -8.720205773500 2.653478379874 -0.270533018410
H -11.492726201491 1.954615003911 0.718708441800
H -4.940517488533 -2.816806237172 -0.089850378994
H 8.100637887578 -2.224806544625 0.698048271158
H 9.969718858139 -0.319411418428 -2.670915410531
H 10.250315374010 -2.079258011629 -2.553194733831
H 8.901871553865 -1.443103263077 -3.555712712677
H -9.697945205178 -0.070630415493 -0.390744570169
}
memory 200GB
set_num_threads(12)
psi4_io.set_default_path("/scratch/eew947/Psi4-farH_in17")
set maxiter 500
set freeze_core True
set PROPERTIES_ORIGIN ["COM"]
set cubeprop_tasks ['esp']
E, wfn = properties('mp2/aug-cc-pVTZ',properties=['dipole'],return_wfn=True)
cubeprop(wfn)
fchk(wfn, "farH_in17-esp.fchk")
oeprop(wfn,"GRID_ESP","WIBERG_LOWDIN_INDICES","MULLIKEN_CHARGES")
clean()
--------------------------------------------------------------------------

    Molecular point group: c1
  Charge       = 1
  Multiplicity = 1
  Basis Set: AUG-CC-PVTZ
    Blend: AUG-CC-PVTZ
  Basis Set: (AUG-CC-PVTZ AUX)
    Blend: AUG-CC-PVTZ-JKFIT

    Orbital Energies [Eh]
    ---------------------

    Doubly Occupied:

       1A    -20.640353     2A    -20.617643     3A    -20.582515
       4A    -20.576847     5A    -15.835829     6A    -15.696909
       7A    -15.695907     8A    -15.659592     9A    -15.631890
      10A    -11.456145    11A    -11.434734    12A    -11.434235
      13A    -11.433803    14A    -11.420395    15A    -11.416349
      16A    -11.396110    17A    -11.393760    18A    -11.392558
      19A    -11.366253    20A    -11.360037    21A    -11.348054
      22A    -11.346712    23A    -11.340413    24A    -11.318561
      25A    -11.307897    26A    -11.302254    27A    -11.301284
      28A    -11.300302    29A    -11.299071    30A    -11.297911
      31A    -11.296855    32A    -11.296729    33A    -11.296109
      34A    -11.295296    35A    -11.294185    36A    -11.293708
      37A    -11.290705    38A    -11.290226    39A    -11.290080
      40A    -11.287976    41A     -1.490062    42A     -1.485102
      43A     -1.477291    44A     -1.437402    45A     -1.387924
      46A     -1.369392    47A     -1.351875    48A     -1.335662
      49A     -1.323414    50A     -1.218324    51A     -1.202455
      52A     -1.201230    53A     -1.194769    54A     -1.174275
      55A     -1.143016    56A     -1.106101    57A     -1.092929
      58A     -1.087383    59A     -1.082505    60A     -1.073876
      61A     -1.071042    62A     -1.058507    63A     -1.046010
      64A     -1.037613    65A     -1.031111    66A     -1.003626
      67A     -0.965910    68A     -0.947570    69A     -0.913022
      70A     -0.907287    71A     -0.903942    72A     -0.893532
      73A     -0.881505    74A     -0.875383    75A     -0.861534
      76A     -0.851576    77A     -0.832425    78A     -0.830048
      79A     -0.822123    80A     -0.814770    81A     -0.799692
      82A     -0.787437    83A     -0.780221    84A     -0.777593
      85A     -0.765092    86A     -0.757941    87A     -0.754598
      88A     -0.748912    89A     -0.747560    90A     -0.734194
      91A     -0.729283    92A     -0.726465    93A     -0.722198
      94A     -0.721115    95A     -0.715248    96A     -0.704302
      97A     -0.702654    98A     -0.699769    99A     -0.694400
     100A     -0.692150   101A     -0.684037   102A     -0.679492
     103A     -0.672245   104A     -0.670466   105A     -0.667445
     106A     -0.665340   107A     -0.659352   108A     -0.659082
     109A     -0.654429   110A     -0.653149   111A     -0.644006
     112A     -0.642675   113A     -0.637665   114A     -0.631339
     115A     -0.626146   116A     -0.625068   117A     -0.619349
     118A     -0.606315   119A     -0.597753   120A     -0.595716
     121A     -0.590136   122A     -0.569570   123A     -0.567241
     124A     -0.562568   125A     -0.560629   126A     -0.558118
     127A     -0.553632   128A     -0.547200   129A     -0.544516
     130A     -0.531336   131A     -0.502243   132A     -0.495667
     133A     -0.493779   134A     -0.489440   135A     -0.486632
     136A     -0.479050   137A     -0.457843   138A     -0.407427
     139A     -0.400644   140A     -0.392250   141A     -0.373657
     142A     -0.363299   143A     -0.337043

  @DF-RHF Final Energy: -1765.81703665585746

   => Energetics <=

    Nuclear Repulsion Energy =           4233.7557313120705658
    One-Electron Energy =              -10808.6744795040649478
    Two-Electron Energy =                4809.1017115361364631
    Total Energy =                      -1765.8170366558579190
  Basis Set: (AUG-CC-PVTZ AUX)
    Blend: AUG-CC-PVTZ-RI
    Molecular point group: c1

    Geometry (in Angstrom), charge = 1, multiplicity = 1:

       Center              X                  Y                   Z               Mass
    ------------   -----------------  -----------------  -----------------  -----------------
         N            1.222140858082     1.192158561459     1.178331490527    14.003074004430
         N            4.167388667351    -1.248676273140     2.956171436156    14.003074004430
         N           -3.911617145246    -1.003587244425     0.213998925645    14.003074004430
         N           -7.538697781257    -0.085105392812     0.050314743846    14.003074004430
         C            3.274053977909    -0.069879698420     1.211261009112    12.000000000000
         C            4.596191145348    -0.551363183765     0.823639514286    12.000000000000
         C            2.356176129779     0.682968997227     0.532301325602    12.000000000000
         C            3.074425284938    -0.469714162406     2.634311837729    12.000000000000
         C            5.100019072943    -1.284444658101     1.921106256583    12.000000000000
         C            5.383264283969    -0.421474489764    -0.318746010349    12.000000000000
         C            2.463060217810     1.017272894084    -0.897955778013    12.000000000000
         C            6.348174096874    -1.893569038940     1.902215222481    12.000000000000
         C            6.644094580945    -1.025839694263    -0.344444866466    12.000000000000
         C            2.642095044454     0.021450152718    -1.869090853296    12.000000000000
         C            2.301500847397     2.351594849989    -1.294682247029    12.000000000000
         C           -0.044317054886     0.619801844586     0.894439316089    12.000000000000
         C            2.712921778899     0.364995532601    -3.216714636906    12.000000000000
         C            2.379724956752     2.690172748816    -2.643832371227    12.000000000000
         C           -0.217532651927    -0.491702017125     0.067108170501    12.000000000000
         C           -1.173849291718     1.207806112187     1.476342588192    12.000000000000
         C            2.583284579501     1.699810617408    -3.606306818380    12.000000000000
         C           -1.492326713235    -1.003847894493    -0.163510795361    12.000000000000
         C           -2.443166545814     0.686559921076     1.270933835686    12.000000000000
         C           -2.621850827254    -0.400458439100     0.400616177061    12.000000000000
         C           -5.050947053381    -0.252815831313     0.209786387033    12.000000000000
         C           -3.926268527202    -2.428330880278    -0.119526289566    12.000000000000
         C           -6.394763932795    -0.982359724321     0.008137419575    12.000000000000
         C           -7.816837139114     0.517683619787     1.350260326215    12.000000000000
         C           -7.576237216589     0.920417306769    -1.012234012445    12.000000000000
         C           -9.323115878629     0.829640331032     1.385567233583    12.000000000000
         C           -8.870088314614     1.729823217905    -0.834457105705    12.000000000000
         C          -11.262978042429     1.304852055595    -0.124819274011    12.000000000000
         C            7.120413152058    -1.763018624366     0.750179799737    12.000000000000
         C            7.440067156501    -0.863856789222    -1.588283417881    12.000000000000
         C            9.495253036016    -1.302072493427    -2.653638447358    12.000000000000
         O            2.148733947397    -0.187914731051     3.404700654260    15.994914619570
         O           -5.076874895405     0.971777000349     0.399290552842    15.994914619570
         O            8.668399107622    -1.423047941353    -1.479199458388    15.994914619570
         O            7.041943462866    -0.289030887454    -2.590515058057    15.994914619570
         N           -9.826811229121     0.888455047988    -0.033835833128    14.003074004430
         H          -11.418212269759     1.865095603234    -1.045144173373     1.007825032230
         H            5.061321053400     0.145493175936    -1.185130407718     1.007825032230
         H            1.364994854950     1.167390411538     2.194692885112     1.007825032230
         H            4.314510418508    -1.597090639368     3.896793987548     1.007825032230
         H            6.715707363168    -2.454517759926     2.757990653988     1.007825032230
         H            2.755385854966    -1.015942232170    -1.559934460599     1.007825032230
         H            2.131277622270     3.111831645313    -0.537031586057     1.007825032230
         H            2.862067555173    -0.408961825555    -3.965087955892     1.007825032230
         H            2.276966247855     3.729145542518    -2.946408705779     1.007825032230
         H            0.641546091907    -0.993384899578    -0.363762448719     1.007825032230
         H           -1.043297575094     2.069141924407     2.127205750565     1.007825032230
         H            2.646123957098     1.967294674016    -4.657843734047     1.007825032230
         H           -1.581865191130    -1.861837029376    -0.820377111734     1.007825032230
         H           -3.293246305138     1.152304291126     1.748900502603     1.007825032230
         H           -3.343518404624    -2.974509437430     0.624839632211     1.007825032230
         H           -6.543562474663    -1.745161015904     0.780425275861     1.007825032230
         H           -7.216104728965     1.417063382442     1.530193163014     1.007825032230
         H           -7.592672572044     0.391923932082    -1.972085762526     1.007825032230
         H           -9.543558444062     1.795510341325     1.845349326269     1.007825032230
         H           -9.335737746599     1.975293837694    -1.790363567137     1.007825032230
         H          -11.896537688142     0.419577007817    -0.092741502257     1.007825032230
         H           -3.521404018996    -2.612989543136    -1.117012142284     1.007825032230
         H           -6.418057221749    -1.496261926059    -0.960614726010     1.007825032230
         H           -7.576075897314    -0.198973013811     2.139214010562     1.007825032230
         H           -6.715923274407     1.596964056265    -0.997376986498     1.007825032230
         H           -9.904080952390     0.053385740436     1.889879396770     1.007825032230
         H           -8.720205773500     2.653478379874    -0.270533018410     1.007825032230
         H          -11.492726201491     1.954615003911     0.718708441800     1.007825032230
         H           -4.940517488533    -2.816806237172    -0.089850378994     1.007825032230
         H            8.100637887578    -2.224806544625     0.698048271158     1.007825032230
         H            9.969718858139    -0.319411418428    -2.670915410531     1.007825032230
         H           10.250315374010    -2.079258011629    -2.553194733831     1.007825032230
         H            8.901871553865    -1.443103263077    -3.555712712677     1.007825032230
         H           -9.697945205178    -0.070630415493    -0.390744570169     1.007825032230

  Basis Set: AUG-CC-PVTZ
    Blend: AUG-CC-PVTZ
  Basis Set: (AUG-CC-PVTZ AUX)
    Blend: AUG-CC-PVTZ-JKFIT
	 Reference Energy          =   -1765.8170366558574642 [Eh]
	 Singles Energy            =      -0.0000000000000000 [Eh]
	 Same-Spin Energy          =      -1.8030163086321449 [Eh]
	 Opposite-Spin Energy      =      -5.2430595939941522 [Eh]
	 Correlation Energy        =      -7.0460759026262973 [Eh]
	 Total Energy              =   -1772.8631125584838628 [Eh]

	 ================> DF-SCS-MP2 Energies <==================
	-----------------------------------------------------------
	 SCS Same-Spin Scale       =       0.3333333333333333 [-]
	 SCS Opposite-Spin Scale   =       1.2000000000000000 [-]
	 SCS Same-Spin Energy      =      -0.6010054362107149 [Eh]
	 SCS Opposite-Spin Energy  =      -6.2916715127929823 [Eh]
	 SCS Correlation Energy    =      -6.8926769490036968 [Eh]
	 SCS Total Energy          =   -1772.7097136048612356 [Eh]
	-----------------------------------------------------------

  Dipole Moment: [D]
     X:   -37.2351      Y:    -0.4841      Z:    -0.5874     Total:    37.2429

  Basis Set: AUG-CC-PVTZ
    Blend: AUG-CC-PVTZ

  Mulliken Charges: (a.u.)
   Center  Symbol    Alpha    Beta     Spin     Total
       1     N     3.79437  3.79437  0.00000 -0.58875
       2     N     3.52951  3.52951  0.00000 -0.05902
       3     N     3.52224  3.52224  0.00000 -0.04449
       4     N     3.58191  3.58191  0.00000 -0.16381
       5     C     2.46311  2.46311  0.00000  1.07378
       6     C     1.98490  1.98490  0.00000  2.03021
       7     C     3.54503  3.54503  0.00000 -1.09005
       8     C     3.15694  3.15694  0.00000 -0.31389
       9     C     3.02422  3.02422  0.00000 -0.04844
      10     C     3.54738  3.54738  0.00000 -1.09477
      11     C     2.06369  2.06369  0.00000  1.87262
      12     C     3.57516  3.57516  0.00000 -1.15031
      13     C     2.21816  2.21816  0.00000  1.56367
      14     C     3.18579  3.18579  0.00000 -0.37158
      15     C     3.69243  3.69243  0.00000 -1.38486
      16     C     2.31664  2.31664  0.00000  1.36671
      17     C     3.46356  3.46356  0.00000 -0.92711
      18     C     3.26131  3.26131  0.00000 -0.52261
      19     C     2.77935  2.77935  0.00000  0.44129
      20     C     3.69486  3.69486  0.00000 -1.38971
      21     C     3.01815  3.01815  0.00000 -0.03631
      22     C     3.68991  3.68991  0.00000 -1.37983
      23     C     3.12439  3.12439  0.00000 -0.24878
      24     C     2.04140  2.04140  0.00000  1.91720
      25     C     2.92521  2.92521  0.00000  0.14958
      26     C     3.64156  3.64156  0.00000 -1.28313
      27     C     3.08961  3.08961  0.00000 -0.17922
      28     C     3.29786  3.29786  0.00000 -0.59572
      29     C     3.39323  3.39323  0.00000 -0.78646
      30     C     3.31299  3.31299  0.00000 -0.62599
      31     C     3.24758  3.24758  0.00000 -0.49515
      32     C     3.48441  3.48441  0.00000 -0.96882
      33     C     3.06566  3.06566  0.00000 -0.13133
      34     C     2.76125  2.76125  0.00000  0.47750
      35     C     3.48871  3.48871  0.00000 -0.97741
      36     O     4.48508  4.48508  0.00000 -0.97017
      37     O     4.47752  4.47752  0.00000 -0.95504
      38     O     4.15970  4.15970  0.00000 -0.31941
      39     O     4.45795  4.45795  0.00000 -0.91590
      40     N     3.22082  3.22082  0.00000  0.55836
      41     H     0.32419  0.32419  0.00000  0.35162
      42     H     0.55505  0.55505  0.00000 -0.11009
      43     H     0.58458  0.58458  0.00000 -0.16916
      44     H     0.48866  0.48866  0.00000  0.02268
      45     H     0.25264  0.25264  0.00000  0.49472
      46     H     0.43396  0.43396  0.00000  0.13207
      47     H     0.47095  0.47095  0.00000  0.05810
      48     H     0.36768  0.36768  0.00000  0.26465
      49     H     0.25491  0.25491  0.00000  0.49018
      50     H     0.29973  0.29973  0.00000  0.40055
      51     H     0.38315  0.38315  0.00000  0.23370
      52     H     0.18808  0.18808  0.00000  0.62384
      53     H     0.59482  0.59482  0.00000 -0.18963
      54     H     0.24963  0.24963  0.00000  0.50075
      55     H     0.35162  0.35162  0.00000  0.29676
      56     H     0.28063  0.28063  0.00000  0.43874
      57     H     0.38338  0.38338  0.00000  0.23324
      58     H     0.35748  0.35748  0.00000  0.28505
      59     H     0.31502  0.31502  0.00000  0.36996
      60     H     0.30858  0.30858  0.00000  0.38284
      61     H     0.32814  0.32814  0.00000  0.34372
      62     H     0.29569  0.29569  0.00000  0.40863
      63     H     0.32597  0.32597  0.00000  0.34805
      64     H     0.30945  0.30945  0.00000  0.38110
      65     H     0.31970  0.31970  0.00000  0.36060
      66     H     0.35898  0.35898  0.00000  0.28203
      67     H     0.37538  0.37538  0.00000  0.24924
      68     H     0.33020  0.33020  0.00000  0.33960
      69     H     0.31378  0.31378  0.00000  0.37243
      70     H     0.36685  0.36685  0.00000  0.26630
      71     H     0.31905  0.31905  0.00000  0.36191
      72     H     0.33030  0.33030  0.00000  0.33940
      73     H     0.27701  0.27701  0.00000  0.44599
      74     H     0.52120  0.52120  0.00000 -0.04239

   Total alpha = 143.00000, Total beta = 143.00000, Total charge =  1.00000

*** Psi4 exiting successfully. Buy a developer a beer!
