                               Psi4 1.3.2 release

  ==> Input File <==

--------------------------------------------------------------------------
molecule {
0 1
O         -4.29600        0.70990        0.04690
C         -4.15550       -0.51950       -0.13450
N         -2.88880       -1.10540       -0.07100
C         -1.67290       -0.44230        0.21710
C         -2.79090       -2.55700       -0.33120
C         -0.45250       -0.99130       -0.17810
C          0.81870        0.79670        0.73960
C          0.76840       -0.39010        0.07510
C         -0.38080        1.37730        1.15150
C         -1.58120        0.75890        0.88810
C         -5.39960       -1.30330       -0.41360
H         -2.17240       -3.04390        0.42450
H         -2.33400       -2.65370       -1.32860
H         -3.80720       -3.03690       -0.27370
H         -0.49600       -1.93920       -0.70890
H          1.69470       -0.88110       -0.25600
H         -0.33620        2.31250        1.67300
H         -2.48410        1.26410        1.24600
H         -5.54410       -2.13730        0.30810
H         -5.24070       -1.74240       -1.43810
H          1.72230        1.25580        0.93390
H         -6.26110       -0.67330       -0.33730
}
memory 100GB
set_num_threads(12)
psi4_io.set_default_path("/scratch/bdw2292/Psi4-farH_in17")
set maxiter 500
set freeze_core True
set PROPERTIES_ORIGIN ["COM"]
set cubeprop_tasks ['esp']
E, wfn = properties('hf/MINIX',properties=['dipole'],return_wfn=True)
cubeprop(wfn)
fchk(wfn, "farH_in17-esp_frag.fchk")
oeprop(wfn,"WIBERG_LOWDIN_INDICES","MULLIKEN_CHARGES")
clean()
--------------------------------------------------------------------------

    Molecular point group: c1

    Geometry (in Angstrom), charge = 0, multiplicity = 1:

       Center              X                  Y                   Z               Mass
    ------------   -----------------  -----------------  -----------------  -----------------
         O           -2.198000549443     1.077042114481    -0.115214871950    15.994914619570
         C           -2.057500549443    -0.152357885519    -0.296614871950    12.000000000000
         N           -0.790800549443    -0.738257885519    -0.233114871950    14.003074004430
         C            0.425099450557    -0.075157885519     0.054985128050    12.000000000000
         C           -0.692900549443    -2.189857885519    -0.493314871950    12.000000000000
         C            1.645499450557    -0.624157885519    -0.340214871950    12.000000000000
         C            2.916699450557     1.163842114481     0.577485128050    12.000000000000
         C            2.866399450557    -0.022957885519    -0.087014871950    12.000000000000
         C            1.717199450557     1.744442114481     0.989385128050    12.000000000000
         C            0.516799450557     1.126042114481     0.725985128050    12.000000000000
         C           -3.301600549443    -0.936157885519    -0.575714871950    12.000000000000
         H           -0.074400549443    -2.676757885519     0.262385128050     1.007825032230
         H           -0.236000549443    -2.286557885519    -1.490714871950     1.007825032230
         H           -1.709200549443    -2.669757885519    -0.435814871950     1.007825032230
         H            1.601999450557    -1.572057885519    -0.871014871950     1.007825032230
         H            3.792699450557    -0.513957885519    -0.418114871950     1.007825032230
         H            1.761799450557     2.679642114481     1.510885128050     1.007825032230
         H           -0.386100549443     1.631242114481     1.083885128050     1.007825032230
         H           -3.446100549443    -1.770157885519     0.145985128050     1.007825032230
         H           -3.142700549443    -1.375257885519    -1.600214871950     1.007825032230
         H            3.820299450557     1.622942114481     0.771785128050     1.007825032230
         H           -4.163100549443    -0.306157885519    -0.499414871950     1.007825032230

  Charge       = 0
  Multiplicity = 1
  Basis Set: MINIX
    Blend: MINIX
  Basis Set: (MINIX AUX)
    Blend: DEF2-SVP-JKFIT

    Orbital Energies [Eh]
    ---------------------

    Doubly Occupied:

       1A    -20.279174     2A    -15.457719     3A    -11.317555
       4A    -11.237709     5A    -11.214013     6A    -11.186185
       7A    -11.177244     8A    -11.172598     9A    -11.167895
      10A    -11.166985    11A    -11.165325    12A     -1.364916
      13A     -1.248841    14A     -1.158377    15A     -1.042520
      16A     -1.020560    17A     -1.001280    18A     -0.949369
      19A     -0.846513    20A     -0.824631    21A     -0.757789
      22A     -0.696958    23A     -0.674730    24A     -0.661815
      25A     -0.649804    26A     -0.622785    27A     -0.608342
      28A     -0.598762    29A     -0.580761    30A     -0.579149
      31A     -0.553738    32A     -0.538072    33A     -0.527127
      34A     -0.505571    35A     -0.495633    36A     -0.477504
      37A     -0.403970    38A     -0.389674    39A     -0.348795
      40A     -0.306241

  @DF-RHF Final Energy:  -473.24483313849498

   => Energetics <=

    Nuclear Repulsion Energy =            588.4100998352806755
    One-Electron Energy =               -1809.3566216945298493
    Two-Electron Energy =                 747.7016887207540776
    Total Energy =                       -473.2448331384949824

  Dipole Moment: [D]
     X:    -0.0149      Y:    -3.7697      Z:    -0.4674     Total:     3.7986

  Basis Set: MINIX
    Blend: MINIX

  Mulliken Charges: (a.u.)
   Center  Symbol    Alpha    Beta     Spin     Total
       1     O     4.20875  4.20875  0.00000 -0.41750
       2     C     2.81004  2.81004  0.00000  0.37992
       3     N     3.65910  3.65910  0.00000 -0.31821
       4     C     2.94920  2.94920  0.00000  0.10159
       5     C     3.11961  3.11961  0.00000 -0.23921
       6     C     3.07365  3.07365  0.00000 -0.14730
       7     C     3.07922  3.07922  0.00000 -0.15844
       8     C     3.06873  3.06873  0.00000 -0.13747
       9     C     3.06662  3.06662  0.00000 -0.13325
      10     C     3.07057  3.07057  0.00000 -0.14114
      11     C     3.19130  3.19130  0.00000 -0.38261
      12     H     0.42924  0.42924  0.00000  0.14153
      13     H     0.43236  0.43236  0.00000  0.13527
      14     H     0.42928  0.42928  0.00000  0.14143
      15     H     0.43444  0.43444  0.00000  0.13113
      16     H     0.42908  0.42908  0.00000  0.14184
      17     H     0.42858  0.42858  0.00000  0.14283
      18     H     0.41531  0.41531  0.00000  0.16937
      19     H     0.42908  0.42908  0.00000  0.14185
      20     H     0.42674  0.42674  0.00000  0.14652
      21     H     0.43087  0.43087  0.00000  0.13827
      22     H     0.41821  0.41821  0.00000  0.16358

   Total alpha = 40.00000, Total beta = 40.00000, Total charge =  0.00000

*** Psi4 exiting successfully. Buy a developer a beer!
