                               Psi4 1.3.2 release

  ==> Input File <==

--------------------------------------------------------------------------
molecule {
0 1
CL -0.838973208280 1.458857460840 -0.042476585352
CL 1.682208821950 -0.001232435812 -0.068257426464
CL -0.842946912786 -1.454003938775 -0.093933286294
C -0.000871033451 -0.008250057695 0.466083238768
H 0.000354091941 -0.027410054840 1.551838544578
}
memory 15GB
set_num_threads(4)
psi4_io.set_default_path("/scratch/bdw2292/Psi4-CHCl3")
set freeze_core True
set PROPERTIES_ORIGIN ["COM"]
set cubeprop_tasks ['esp']
E, wfn = properties('mp2/6-311G**',properties=['dipole'],return_wfn=True)
cubeprop(wfn)
fchk(wfn, "CHCl3-dma.fchk")
clean()
--------------------------------------------------------------------------

    Molecular point group: c1
  Charge       = 0
  Multiplicity = 1
  Basis Set: 6-311G**
    Blend: 6-311G**
  Basis Set: (6-311G** AUX)
    Blend: CC-PVTZ-JKFIT

    Orbital Energies [Eh]
    ---------------------

    Doubly Occupied:

       1A   -104.869413     2A   -104.869406     3A   -104.869206
       4A    -11.440195     5A    -10.596132     6A    -10.596108
       7A    -10.595895     8A     -8.064378     9A     -8.064367
      10A     -8.064145    11A     -8.061025    12A     -8.061015
      13A     -8.060978    14A     -8.060967    15A     -8.060797
      16A     -8.060750    17A     -1.252046    18A     -1.122577
      19A     -1.122274    20A     -0.881323    21A     -0.689374
      22A     -0.633624    23A     -0.633472    24A     -0.508113
      25A     -0.508022    26A     -0.474026    27A     -0.473885
      28A     -0.470009    29A     -0.456189

  @DF-RHF Final Energy: -1416.95412393093488

   => Energetics <=

    Nuclear Repulsion Energy =            263.7054603820467946
    One-Electron Energy =               -2482.0797424476572814
    Two-Electron Energy =                 801.4201581346756029
    Total Energy =                      -1416.9541239309351113
  Basis Set: (6-311G** AUX)
    Blend: CC-PVTZ-RI
    Molecular point group: c1

    Geometry (in Angstrom), charge = 0, multiplicity = 1:

       Center              X                  Y                   Z               Mass
    ------------   -----------------  -----------------  -----------------  -----------------
         CL          -0.838973208280     1.458857460840    -0.042476585352    34.968852682000
         CL           1.682208821950    -0.001232435812    -0.068257426464    34.968852682000
         CL          -0.842946912786    -1.454003938775    -0.093933286294    34.968852682000
         C           -0.000871033451    -0.008250057695     0.466083238768    12.000000000000
         H            0.000354091941    -0.027410054840     1.551838544578     1.007825032230

  Basis Set: 6-311G**
    Blend: 6-311G**
  Basis Set: (6-311G** AUX)
    Blend: CC-PVTZ-JKFIT
	 Reference Energy          =   -1416.9541239309348839 [Eh]
	 Singles Energy            =      -0.0000000000000000 [Eh]
	 Same-Spin Energy          =      -0.1492414704658848 [Eh]
	 Opposite-Spin Energy      =      -0.4146059991474897 [Eh]
	 Correlation Energy        =      -0.5638474696133745 [Eh]
	 Total Energy              =   -1417.5179714005482765 [Eh]

	 ================> DF-SCS-MP2 Energies <==================
	-----------------------------------------------------------
	 SCS Same-Spin Scale       =       0.3333333333333333 [-]
	 SCS Opposite-Spin Scale   =       1.2000000000000000 [-]
	 SCS Same-Spin Energy      =      -0.0497471568219616 [Eh]
	 SCS Opposite-Spin Energy  =      -0.4975271989769876 [Eh]
	 SCS Correlation Energy    =      -0.5472743557989492 [Eh]
	 SCS Total Energy          =   -1417.5013982867337745 [Eh]
	-----------------------------------------------------------

  Dipole Moment: [D]
     X:    -0.0068      Y:    -0.0211      Z:     1.1676     Total:     1.1678

  Basis Set: 6-311G**
    Blend: 6-311G**
*** Psi4 exiting successfully. Buy a developer a beer!
