                               Psi4 1.3.2 release

  ==> Input File <==

--------------------------------------------------------------------------
molecule {
0 1
CL -0.838973208280 1.458857460840 -0.042476585352
CL 1.682208821950 -0.001232435812 -0.068257426464
CL -0.842946912786 -1.454003938775 -0.093933286294
C -0.000871033451 -0.008250057695 0.466083238768
H 0.000354091941 -0.027410054840 1.551838544578
}
memory 15GB
set_num_threads(4)
psi4_io.set_default_path("/scratch/bdw2292/Psi4-CHCl3")
set maxiter 500
set freeze_core True
set PROPERTIES_ORIGIN ["COM"]
set cubeprop_tasks ['esp']
E, wfn = properties('mp2/aug-cc-pVTZ',properties=['dipole'],return_wfn=True)
cubeprop(wfn)
fchk(wfn, "CHCl3-esp.fchk")
oeprop(wfn,"GRID_ESP","WIBERG_LOWDIN_INDICES","MULLIKEN_CHARGES")
clean()
--------------------------------------------------------------------------

    Molecular point group: c1
  Charge       = 0
  Multiplicity = 1
  Basis Set: AUG-CC-PVTZ
    Blend: AUG-CC-PVTZ
  Basis Set: (AUG-CC-PVTZ AUX)
    Blend: AUG-CC-PVTZ-JKFIT

    Orbital Energies [Eh]
    ---------------------

    Doubly Occupied:

       1A   -104.867388     2A   -104.867381     3A   -104.867183
       4A    -11.434966     5A    -10.591836     6A    -10.591822
       7A    -10.591609     8A     -8.058648     9A     -8.058637
      10A     -8.058420    11A     -8.056511    12A     -8.056501
      13A     -8.056464    14A     -8.056454    15A     -8.056287
      16A     -8.056241    17A     -1.243760    18A     -1.116103
      19A     -1.115806    20A     -0.874530    21A     -0.682139
      22A     -0.627529    23A     -0.627380    24A     -0.504850
      25A     -0.504753    26A     -0.469314    27A     -0.469173
      28A     -0.464811    29A     -0.451962

  @DF-RHF Final Energy: -1417.00234056621616

   => Energetics <=

    Nuclear Repulsion Energy =            263.7054603820467946
    One-Electron Energy =               -2482.4586836880093870
    Two-Electron Energy =                 801.7508827397465438
    Total Energy =                      -1417.0023405662163896
  Basis Set: (AUG-CC-PVTZ AUX)
    Blend: AUG-CC-PVTZ-RI
    Molecular point group: c1

    Geometry (in Angstrom), charge = 0, multiplicity = 1:

       Center              X                  Y                   Z               Mass
    ------------   -----------------  -----------------  -----------------  -----------------
         CL          -0.838973208280     1.458857460840    -0.042476585352    34.968852682000
         CL           1.682208821950    -0.001232435812    -0.068257426464    34.968852682000
         CL          -0.842946912786    -1.454003938775    -0.093933286294    34.968852682000
         C           -0.000871033451    -0.008250057695     0.466083238768    12.000000000000
         H            0.000354091941    -0.027410054840     1.551838544578     1.007825032230

  Basis Set: AUG-CC-PVTZ
    Blend: AUG-CC-PVTZ
  Basis Set: (AUG-CC-PVTZ AUX)
    Blend: AUG-CC-PVTZ-JKFIT
	 Reference Energy          =   -1417.0023405662161622 [Eh]
	 Singles Energy            =      -0.0000000000000000 [Eh]
	 Same-Spin Energy          =      -0.1910128174414025 [Eh]
	 Opposite-Spin Energy      =      -0.5651278929912302 [Eh]
	 Correlation Energy        =      -0.7561407104326328 [Eh]
	 Total Energy              =   -1417.7584812766488085 [Eh]

	 ================> DF-SCS-MP2 Energies <==================
	-----------------------------------------------------------
	 SCS Same-Spin Scale       =       0.3333333333333333 [-]
	 SCS Opposite-Spin Scale   =       1.2000000000000000 [-]
	 SCS Same-Spin Energy      =      -0.0636709391471342 [Eh]
	 SCS Opposite-Spin Energy  =      -0.6781534715894763 [Eh]
	 SCS Correlation Energy    =      -0.7418244107366104 [Eh]
	 SCS Total Energy          =   -1417.7441649769527885 [Eh]
	-----------------------------------------------------------

  Dipole Moment: [D]
     X:    -0.0062      Y:    -0.0191      Z:     1.0566     Total:     1.0568

  Basis Set: AUG-CC-PVTZ
    Blend: AUG-CC-PVTZ

  Mulliken Charges: (a.u.)
   Center  Symbol    Alpha    Beta     Spin     Total
       1    CL     8.56888  8.56888  0.00000 -0.13777
       2    CL     8.56916  8.56916  0.00000 -0.13833
       3    CL     8.56884  8.56884  0.00000 -0.13769
       4     C     2.95051  2.95051  0.00000  0.09897
       5     H     0.34259  0.34259  0.00000  0.31481

   Total alpha = 29.00000, Total beta = 29.00000, Total charge =  0.00000

*** Psi4 exiting successfully. Buy a developer a beer!
