                               Psi4 1.3.2 release

  ==> Input File <==

--------------------------------------------------------------------------
molecule {
0 1
Cl   -0.817300    1.483200   -0.447200
Cl    1.658800    0.011800   -0.467800
Cl   -0.825900   -1.460200   -0.487700
 C   -0.022500   -0.001900    0.142400
 H    0.006900   -0.033000    1.260300
}
set {
  geom_maxiter 400
  g_convergence GAU
  dynamic_level 1
}
memory 15GB
set_num_threads(4)
psi4_io.set_default_path("/scratch/bdw2292/Psi4-CHCl3")
for _ in range(1):
  try:
    set opt_coordinates both
    optimize('mp2/6-31G*')
    break
  except OptimizationConvergenceError:
    break
  else:
    try:
      set opt_coordinates cartesian
      optimize('mp2/6-31G*')
      break
    except OptimizationConvergenceError:
      pass
clean()
--------------------------------------------------------------------------

    Molecular point group: c1
  Charge       = 0
  Multiplicity = 1
  Basis Set: 6-31G*
    Blend: 6-31G*
  Basis Set: (6-31G* AUX)
    Blend: CC-PVDZ-JKFIT
  @DF-RHF Final Energy: -1416.86515770207279
    Total Energy =                      -1416.8651577020727927
  Basis Set: (6-31G* AUX)
    Blend: CC-PVDZ-RI
    Molecular point group: c1
  Basis Set: 6-31G*
    Blend: 6-31G*
  Basis Set: (6-31G* AUX)
    Blend: CC-PVDZ-JKFIT
  Basis Set: (6-31G* AUX)
    Blend: CC-PVDZ-JKFIT
	 Reference Energy          =   -1416.8651577020727927 [Eh]
	 Singles Energy            =      -0.0000000000000000 [Eh]
	 Same-Spin Energy          =      -0.1497307302397203 [Eh]
	 Opposite-Spin Energy      =      -0.4111872910385995 [Eh]
	 Correlation Energy        =      -0.5609180212783198 [Eh]
	 Total Energy              =   -1417.4260757233510049 [Eh]
	 SCS Total Energy          =   -1417.4084926947323311 [Eh]
  @DF-RHF Final Energy: -1416.86899749082204
    Total Energy =                      -1416.8689974908220393
  @DF-RHF Final Energy: -1416.86923706587277
    Total Energy =                      -1416.8692370658729942
  Charge       = 0
  Multiplicity = 1
  Basis Set: 6-31G*
    Blend: 6-31G*
  Basis Set: (6-31G* AUX)
    Blend: CC-PVDZ-JKFIT

    Orbital Energies [Eh]
    ---------------------

    Doubly Occupied:

       1A   -104.855544     2A   -104.855536     3A   -104.855332
       4A    -11.434876     5A    -10.589960     6A    -10.589942
       7A    -10.589724     8A     -8.059373     9A     -8.059358
      10A     -8.059135    11A     -8.055544    12A     -8.055533
      13A     -8.055491    14A     -8.055481    15A     -8.055313
      16A     -8.055260    17A     -1.250789    18A     -1.119683
      19A     -1.119379    20A     -0.878810    21A     -0.687646
      22A     -0.631291    23A     -0.631138    24A     -0.505208
      25A     -0.505115    26A     -0.471000    27A     -0.470858
      28A     -0.467093    29A     -0.453738

  @DF-RHF Final Energy: -1416.86920228404642

   => Energetics <=

    Nuclear Repulsion Energy =            263.7054603820396892
    One-Electron Energy =               -2482.2030273897762527
    Two-Electron Energy =                 801.6283647236898560
    Total Energy =                      -1416.8692022840466507

  Dipole Moment: [D]
     X:    -0.0070      Y:    -0.0244      Z:     1.3599     Total:     1.3602

  Basis Set: (6-31G* AUX)
    Blend: CC-PVDZ-RI
    Molecular point group: c1
  Basis Set: 6-31G*
    Blend: 6-31G*
  Basis Set: (6-31G* AUX)
    Blend: CC-PVDZ-JKFIT
  Basis Set: (6-31G* AUX)
    Blend: CC-PVDZ-JKFIT
	 Reference Energy          =   -1416.8692022840464233 [Eh]
	 Singles Energy            =      -0.0000000000000000 [Eh]
	 Same-Spin Energy          =      -0.1499180818990143 [Eh]
	 Opposite-Spin Energy      =      -0.4099670925362298 [Eh]
	 Correlation Energy        =      -0.5598851744352441 [Eh]
	 Total Energy              =   -1417.4290874584817175 [Eh]

	 ================> DF-SCS-MP2 Energies <==================
	-----------------------------------------------------------
	 SCS Same-Spin Scale       =       0.3333333333333333 [-]
	 SCS Opposite-Spin Scale   =       1.2000000000000000 [-]
	 SCS Same-Spin Energy      =      -0.0499726939663381 [Eh]
	 SCS Opposite-Spin Energy  =      -0.4919605110434757 [Eh]
	 SCS Correlation Energy    =      -0.5419332050098138 [Eh]
	 SCS Total Energy          =   -1417.4111354890562779 [Eh]
	-----------------------------------------------------------

  -Total Gradient:
     Atom            X                  Y                   Z
    ------   -----------------  -----------------  -----------------
       1        0.000084777318    -0.000062608306     0.000048463125
       2        0.000255443635    -0.000010957735    -0.000026039145
       3        0.000124155290     0.000106008932     0.000066556675
       4       -0.000564543121    -0.000026754079    -0.000222302677
       5        0.000100166837    -0.000005688816     0.000133322015

  **** Optimization is complete! (in 4 steps) ****
    Final optimized geometry and variables:
    Molecular point group: c1

    Geometry (in Angstrom), charge = 0, multiplicity = 1:

    CL          -0.838973208280     1.458857460840    -0.042476585352
    CL           1.682208821950    -0.001232435812    -0.068257426464
    CL          -0.842946912786    -1.454003938775    -0.093933286294
    C           -0.000871033451    -0.008250057695     0.466083238768
    H            0.000354091941    -0.027410054840     1.551838544578

*** Psi4 exiting successfully. Buy a developer a beer!
