                               Psi4 1.5 release

  ==> Input File <==

--------------------------------------------------------------------------
molecule {
0 1
C 1.541487966730 -0.521020246824 -0.140148226537
N 0.370389871710 -0.918893004911 0.536889680748
C -0.832057320215 -0.289012851446 0.536491312183
C -1.785666526923 -0.645118401456 1.472159582904
H 0.445552605881 -1.649926203257 1.261288600961
C -1.126761430217 0.696214610279 -0.521290081431
C -3.157435639782 -0.222665401258 1.623060712855
N -2.674852217260 -1.695640943668 3.257025128421
C -1.505789382311 -1.623125117930 2.525042148310
C -3.661365507457 -0.875950436503 2.705901489910
C -1.641080742789 1.956559288467 -0.190865597124
C -0.908271275492 0.365090154436 -1.865753879918
C -1.929912679517 2.877285823899 -1.197523832092
C -1.204576328784 1.287148695709 -2.865631640754
C -1.713169843525 2.545383077998 -2.535213065472
C 2.408201521507 -1.515927798168 -0.604271042982
C 1.901699264129 0.822898380266 -0.298474421923
C 3.595402920420 -1.177737457902 -1.244036001477
C 3.077257447759 1.155876538649 -0.961338378213
C 3.952654477029 0.164630027747 -1.425663812651
H -2.788374679778 -2.330536534243 4.036108830327
O -0.463993845755 -2.280454672409 2.743828187374
H -1.794911265558 2.211973970471 0.854761473955
H -0.512466868959 -0.615618321622 -2.118020776121
H -2.321553224149 3.857335293567 -0.936197487797
H -1.038842881906 1.024193936832 -3.907368699136
H -1.938740746674 3.264451015912 -3.318623517097
H 2.133656081946 -2.561039470623 -0.478718828906
H 1.259700843837 1.607305333051 0.089963824631
H 4.256891465652 -1.964445300296 -1.602070747372
H 3.341707732483 2.204600871452 -1.085486624004
N 5.107257751617 0.508464808532 -2.146928943874
H -3.698448112554 0.467358631089 0.990651752507
H -4.648080633888 -0.831832039912 3.146809868879
H 5.841558519705 -0.189188141624 -2.081268704480
H 5.477321302893 1.419859041993 -1.896212171579
}
memory 8.166666666666666GB
set_num_threads(2)
psi4_io.set_default_path("/scratch/bdw2292/Psi4-1_7_Index_0_GrowFragment_0-farH_in17")
set maxiter 500
set freeze_core True
set PROPERTIES_ORIGIN ["COM"]
set cubeprop_tasks ['esp']
set basis aug-cc-pVTZ
E, wfn = properties('mp2',properties=['dipole'],return_wfn=True)
cubeprop(wfn)
fchk(wfn, "1_7_Index_0_GrowFragment_0-esp.fchk")
oeprop(wfn,"GRID_ESP","WIBERG_LOWDIN_INDICES","MULLIKEN_CHARGES")
clean()
--------------------------------------------------------------------------

    Molecular point group: c1
  Charge       = 0
  Multiplicity = 1
  Basis Set: AUG-CC-PVTZ
    Blend: AUG-CC-PVTZ
  Basis Set: (AUG-CC-PVTZ AUX)
    Blend: AUG-CC-PVTZ-JKFIT

    Orbital Energies [Eh]
    ---------------------

    Doubly Occupied:

       1A    -20.504668     2A    -15.587696     3A    -15.586872
       4A    -15.568464     5A    -11.335205     6A    -11.317910
       7A    -11.278518     8A    -11.271311     9A    -11.261456
      10A    -11.258133    11A    -11.251144    12A    -11.250452
      13A    -11.250222    14A    -11.247979    15A    -11.246773
      16A    -11.239079    17A    -11.239005    18A    -11.232326
      19A    -11.232230    20A    -11.221161    21A    -11.213936
      22A     -1.356205    23A     -1.274528    24A     -1.256113
      25A     -1.224278    26A     -1.167626    27A     -1.130036
      28A     -1.075602    29A     -1.036578    30A     -1.027379
      31A     -1.019235    32A     -0.996648    33A     -0.956997
      34A     -0.897363    35A     -0.847327    36A     -0.840698
      37A     -0.837401    38A     -0.804074    39A     -0.786476
      40A     -0.765233    41A     -0.722768    42A     -0.704701
      43A     -0.692506    44A     -0.687198    45A     -0.681477
      46A     -0.660598    47A     -0.641607    48A     -0.630088
      49A     -0.611880    50A     -0.604627    51A     -0.598986
      52A     -0.592053    53A     -0.590156    54A     -0.586362
      55A     -0.584382    56A     -0.576846    57A     -0.565387
      58A     -0.542042    59A     -0.535317    60A     -0.522643
      61A     -0.513284    62A     -0.510017    63A     -0.505363
      64A     -0.488761    65A     -0.460378    66A     -0.447818
      67A     -0.409258    68A     -0.374486    69A     -0.353485
      70A     -0.349985    71A     -0.338637    72A     -0.293667
      73A     -0.255840

  @DF-RHF Final Energy:  -891.00152937868108

   => Energetics <=

    Nuclear Repulsion Energy =           1551.4532771600026990
    One-Electron Energy =               -4293.8557349196398718
    Two-Electron Energy =                1851.4009283809564295
    Total Energy =                       -891.0015293786809707
  Basis Set: (AUG-CC-PVTZ AUX)
    Blend: AUG-CC-PVTZ-RI
    Molecular point group: c1

    Geometry (in Angstrom), charge = 0, multiplicity = 1:

       Center              X                  Y                   Z               Mass
    ------------   -----------------  -----------------  -----------------  -----------------
         C            1.541487966730    -0.521020246824    -0.140148226537    12.000000000000
         N            0.370389871710    -0.918893004911     0.536889680748    14.003074004430
         C           -0.832057320215    -0.289012851446     0.536491312183    12.000000000000
         C           -1.785666526923    -0.645118401456     1.472159582904    12.000000000000
         H            0.445552605881    -1.649926203257     1.261288600961     1.007825032230
         C           -1.126761430217     0.696214610279    -0.521290081431    12.000000000000
         C           -3.157435639782    -0.222665401258     1.623060712855    12.000000000000
         N           -2.674852217260    -1.695640943668     3.257025128421    14.003074004430
         C           -1.505789382311    -1.623125117930     2.525042148310    12.000000000000
         C           -3.661365507457    -0.875950436503     2.705901489910    12.000000000000
         C           -1.641080742789     1.956559288467    -0.190865597124    12.000000000000
         C           -0.908271275492     0.365090154436    -1.865753879918    12.000000000000
         C           -1.929912679517     2.877285823899    -1.197523832092    12.000000000000
         C           -1.204576328784     1.287148695709    -2.865631640754    12.000000000000
         C           -1.713169843525     2.545383077998    -2.535213065472    12.000000000000
         C            2.408201521507    -1.515927798168    -0.604271042982    12.000000000000
         C            1.901699264129     0.822898380266    -0.298474421923    12.000000000000
         C            3.595402920420    -1.177737457902    -1.244036001477    12.000000000000
         C            3.077257447759     1.155876538649    -0.961338378213    12.000000000000
         C            3.952654477029     0.164630027747    -1.425663812651    12.000000000000
         H           -2.788374679778    -2.330536534243     4.036108830327     1.007825032230
         O           -0.463993845755    -2.280454672409     2.743828187374    15.994914619570
         H           -1.794911265558     2.211973970471     0.854761473955     1.007825032230
         H           -0.512466868959    -0.615618321622    -2.118020776121     1.007825032230
         H           -2.321553224149     3.857335293567    -0.936197487797     1.007825032230
         H           -1.038842881906     1.024193936832    -3.907368699136     1.007825032230
         H           -1.938740746674     3.264451015912    -3.318623517097     1.007825032230
         H            2.133656081946    -2.561039470623    -0.478718828906     1.007825032230
         H            1.259700843837     1.607305333051     0.089963824631     1.007825032230
         H            4.256891465652    -1.964445300296    -1.602070747372     1.007825032230
         H            3.341707732483     2.204600871452    -1.085486624004     1.007825032230
         N            5.107257751617     0.508464808532    -2.146928943874    14.003074004430
         H           -3.698448112554     0.467358631089     0.990651752507     1.007825032230
         H           -4.648080633888    -0.831832039912     3.146809868879     1.007825032230
         H            5.841558519705    -0.189188141624    -2.081268704480     1.007825032230
         H            5.477321302893     1.419859041993    -1.896212171579     1.007825032230

  Basis Set: AUG-CC-PVTZ
    Blend: AUG-CC-PVTZ
  Basis Set: (AUG-CC-PVTZ AUX)
    Blend: AUG-CC-PVTZ-JKFIT
	 Reference Energy          =    -891.0015293786810844 [Eh]
	 Singles Energy            =      -0.0000000000000000 [Eh]
	 Same-Spin Energy          =      -0.9343383856742565 [Eh]
	 Opposite-Spin Energy      =      -2.6563409602702546 [Eh]
	 Correlation Energy        =      -3.5906793459445110 [Eh]
	 Total Energy              =    -894.5922087246256069 [Eh]

	 ================> DF-SCS-MP2 Energies <==================
	-----------------------------------------------------------
	 SCS Same-Spin Scale       =       0.3333333333333333 [-]
	 SCS Opposite-Spin Scale   =       1.2000000000000000 [-]
	 SCS Same-Spin Energy      =      -0.3114461285580855 [Eh]
	 SCS Opposite-Spin Energy  =      -3.1876091523243053 [Eh]
	 SCS Correlation Energy    =      -3.4990552808823909 [Eh]
	 SCS Total Energy          =    -894.5005846595635148 [Eh]
	-----------------------------------------------------------

  Dipole Moment: [D]
     X:     0.6590      Y:     2.1751      Z:    -1.4908     Total:     2.7180

  Basis Set: AUG-CC-PVTZ
    Blend: AUG-CC-PVTZ

  Mulliken Charges: (a.u.)
   Center  Symbol    Alpha    Beta     Spin     Total
       1     C     2.35458  2.35458  0.00000  1.29083
       2     N     3.90317  3.90317  0.00000 -0.80635
       3     C     2.85331  2.85331  0.00000  0.29337
       4     C     1.94159  1.94159  0.00000  2.11682
       5     H     0.44113  0.44113  0.00000  0.11774
       6     C     2.33437  2.33437  0.00000  1.33126
       7     C     3.19701  3.19701  0.00000 -0.39402
       8     N     3.48899  3.48899  0.00000  0.02201
       9     C     3.15965  3.15965  0.00000 -0.31930
      10     C     3.53529  3.53529  0.00000 -1.07058
      11     C     3.47883  3.47883  0.00000 -0.95767
      12     C     3.53084  3.53084  0.00000 -1.06169
      13     C     3.37294  3.37294  0.00000 -0.74589
      14     C     3.35042  3.35042  0.00000 -0.70084
      15     C     3.00640  3.00640  0.00000 -0.01281
      16     C     3.49629  3.49629  0.00000 -0.99258
      17     C     3.28856  3.28856  0.00000 -0.57711
      18     C     3.27752  3.27752  0.00000 -0.55505
      19     C     3.39905  3.39905  0.00000 -0.79811
      20     C     2.30749  2.30749  0.00000  1.38503
      21     H     0.44910  0.44910  0.00000  0.10180
      22     O     4.42609  4.42609  0.00000 -0.85219
      23     H     0.50466  0.50466  0.00000 -0.00932
      24     H     0.47716  0.47716  0.00000  0.04569
      25     H     0.33206  0.33206  0.00000  0.33587
      26     H     0.28558  0.28558  0.00000  0.42884
      27     H     0.19344  0.19344  0.00000  0.61311
      28     H     0.33174  0.33174  0.00000  0.33651
      29     H     0.30466  0.30466  0.00000  0.39067
      30     H     0.33869  0.33869  0.00000  0.32263
      31     H     0.36114  0.36114  0.00000  0.27772
      32     N     3.91344  3.91344  0.00000 -0.82689
      33     H     0.26360  0.26360  0.00000  0.47281
      34     H     0.16304  0.16304  0.00000  0.67392
      35     H     0.47749  0.47749  0.00000  0.04503
      36     H     0.46065  0.46065  0.00000  0.07871

   Total alpha = 73.00000, Total beta = 73.00000, Total charge =  0.00000

*** Psi4 exiting successfully. Buy a developer a beer!
