                               Psi4 1.5 release

  ==> Input File <==

--------------------------------------------------------------------------
molecule {
0 1
C         -0.79870       -0.46170        0.40860
N         -2.06780       -0.69620        0.96370
C         -3.34440       -0.17000        0.77570
C         -4.40600       -0.53170        1.53860
H         -2.03740       -1.38700        1.72220
C         -3.57440        0.75960       -0.34700
C         -5.84450       -0.19140        1.51590
N         -5.46230       -1.60290        3.28930
C         -4.21840       -1.48060        2.70320
C         -6.41730       -0.86260        2.60460
C         -3.69970        2.13940       -0.11620
C         -3.69150        0.26880       -1.65490
C         -3.94510        3.01080       -1.17870
C         -3.93630        1.14370       -2.71460
C         -4.06530        2.51180       -2.47540
C          0.17590       -1.45560        0.57390
C         -0.43520        0.64590       -0.34920
C          1.46150       -1.33920        0.02120
C          0.85060        0.76730       -0.90610
C          1.83080       -0.22030       -0.72870
H         -5.63160       -2.18680        4.09440
O         -3.18700       -2.02820        3.05110
H         -3.60970        2.53610        0.89250
H         -3.59150       -0.79670       -1.84880
H         -4.05260        4.07670       -0.99460
H         -4.03330        0.75700       -3.72580
H         -4.26760        3.18990       -3.30100
H         -0.06130       -2.35900        1.13380
H         -1.12070        1.46840       -0.50880
H          2.13470       -2.17740        0.17120
H          1.05380        1.68270       -1.45390
N          3.14360       -0.07970       -1.31840
H         -6.32830        0.41660        0.83670
H         -7.41520       -0.81340        2.86300
H          3.82100       -0.78160       -1.18490
H          3.36000        0.71790       -1.85340
}
memory 49GB
set_num_threads(12)
psi4_io.set_default_path("/scratch/bdw2292/Psi4-farH_in17")
set maxiter 500
set freeze_core True
set PROPERTIES_ORIGIN ["COM"]
set cubeprop_tasks ['esp']
set basis MINIX
E, wfn = properties('hf',properties=['dipole'],return_wfn=True)
cubeprop(wfn)
fchk(wfn, "farH_in17-esp_frag.fchk")
oeprop(wfn,"WIBERG_LOWDIN_INDICES","MULLIKEN_CHARGES")
clean()
--------------------------------------------------------------------------

    Molecular point group: c1

    Geometry (in Angstrom), charge = 0, multiplicity = 1:

       Center              X                  Y                   Z               Mass
    ------------   -----------------  -----------------  -----------------  -----------------
         C            1.630287374705    -0.436571633115     0.109943293127    12.000000000000
         N            0.361187374705    -0.671071633115     0.665043293127    14.003074004430
         C           -0.915412625295    -0.144871633115     0.477043293127    12.000000000000
         C           -1.977012625295    -0.506571633115     1.239943293127    12.000000000000
         H            0.391587374705    -1.361871633115     1.423543293127     1.007825032230
         C           -1.145412625295     0.784728366885    -0.645656706873    12.000000000000
         C           -3.415512625295    -0.166271633115     1.217243293127    12.000000000000
         N           -3.033312625295    -1.577771633115     2.990643293127    14.003074004430
         C           -1.789412625295    -1.455471633115     2.404543293127    12.000000000000
         C           -3.988312625295    -0.837471633115     2.305943293127    12.000000000000
         C           -1.270712625295     2.164528366885    -0.414856706873    12.000000000000
         C           -1.262512625295     0.293928366885    -1.953556706873    12.000000000000
         C           -1.516112625295     3.035928366885    -1.477356706873    12.000000000000
         C           -1.507312625295     1.168828366885    -3.013256706873    12.000000000000
         C           -1.636312625295     2.536928366885    -2.774056706873    12.000000000000
         C            2.604887374705    -1.430471633115     0.275243293127    12.000000000000
         C            1.993787374705     0.671028366885    -0.647856706873    12.000000000000
         C            3.890487374705    -1.314071633115    -0.277456706873    12.000000000000
         C            3.279587374705     0.792428366885    -1.204756706873    12.000000000000
         C            4.259787374705    -0.195171633115    -1.027356706873    12.000000000000
         H           -3.202612625295    -2.161671633115     3.795743293127     1.007825032230
         O           -0.758012625295    -2.003071633115     2.752443293127    15.994914619570
         H           -1.180712625295     2.561228366885     0.593843293127     1.007825032230
         H           -1.162512625295    -0.771571633115    -2.147456706873     1.007825032230
         H           -1.623612625295     4.101828366885    -1.293256706873     1.007825032230
         H           -1.604312625295     0.782128366885    -4.024456706873     1.007825032230
         H           -1.838612625295     3.215028366885    -3.599656706873     1.007825032230
         H            2.367687374705    -2.333871633115     0.835143293127     1.007825032230
         H            1.308287374705     1.493528366885    -0.807456706873     1.007825032230
         H            4.563687374705    -2.152271633115    -0.127456706873     1.007825032230
         H            3.482787374705     1.707828366885    -1.752556706873     1.007825032230
         N            5.572587374705    -0.054571633115    -1.617056706873    14.003074004430
         H           -3.899312625295     0.441728366885     0.538043293127     1.007825032230
         H           -4.986212625295    -0.788271633115     2.564343293127     1.007825032230
         H            6.249987374705    -0.756471633115    -1.483556706873     1.007825032230
         H            5.788987374705     0.743028366885    -2.152056706873     1.007825032230

  Charge       = 0
  Multiplicity = 1
  Basis Set: MINIX
    Blend: MINIX
  Basis Set: (MINIX AUX)
    Blend: DEF2-UNIVERSAL-JKFIT

    Orbital Energies [Eh]
    ---------------------

    Doubly Occupied:

       1A    -20.274475     2A    -15.453925     3A    -15.439716
       4A    -15.382611     5A    -11.310283     6A    -11.263849
       7A    -11.227840     8A    -11.226458     9A    -11.206509
      10A    -11.202583    11A    -11.185970    12A    -11.185408
      13A    -11.184753    14A    -11.183310    15A    -11.182188
      16A    -11.167422    17A    -11.165799    18A    -11.161948
      19A    -11.159260    20A    -11.150557    21A    -11.147422
      22A     -1.376853    23A     -1.255247    24A     -1.250674
      25A     -1.187782    26A     -1.169193    27A     -1.121392
      28A     -1.072227    29A     -1.031292    30A     -1.026507
      31A     -1.009039    32A     -0.995050    33A     -0.958389
      34A     -0.893253    35A     -0.835190    36A     -0.833082
      37A     -0.829034    38A     -0.798654    39A     -0.786874
      40A     -0.753982    41A     -0.717841    42A     -0.695869
      43A     -0.690085    44A     -0.678171    45A     -0.664040
      46A     -0.645536    47A     -0.635755    48A     -0.629606
      49A     -0.606244    50A     -0.605160    51A     -0.594081
      52A     -0.592550    53A     -0.587742    54A     -0.577475
      55A     -0.570609    56A     -0.559761    57A     -0.550669
      58A     -0.543207    59A     -0.524855    60A     -0.516193
      61A     -0.509913    62A     -0.496801    63A     -0.492272
      64A     -0.476989    65A     -0.451505    66A     -0.435518
      67A     -0.378738    68A     -0.373727    69A     -0.356011
      70A     -0.352167    71A     -0.341604    72A     -0.291953
      73A     -0.238048

  @DF-RHF Final Energy:  -884.53634057857266

   => Energetics <=

    Nuclear Repulsion Energy =           1531.6841359119414392
    One-Electron Energy =               -4245.5875382940539566
    Two-Electron Energy =                1829.3670618035396274
    Total Energy =                       -884.5363405785726627

  Dipole Moment: [D]
     X:    -0.2927      Y:     1.2544      Z:    -1.6080     Total:     2.0603

  Basis Set: MINIX
    Blend: MINIX

  Mulliken Charges: (a.u.)
   Center  Symbol    Alpha    Beta     Spin     Total
       1     C     2.95940  2.95940  0.00000  0.08120
       2     N     3.69683  3.69683  0.00000 -0.39366
       3     C     2.91939  2.91939  0.00000  0.16122
       4     C     3.04995  3.04995  0.00000 -0.09991
       5     H     0.34513  0.34513  0.00000  0.30974
       6     C     3.01148  3.01148  0.00000 -0.02297
       7     C     3.08857  3.08857  0.00000 -0.17714
       8     N     3.70725  3.70725  0.00000 -0.41450
       9     C     2.80447  2.80447  0.00000  0.39106
      10     C     3.01440  3.01440  0.00000 -0.02881
      11     C     3.06373  3.06373  0.00000 -0.12747
      12     C     3.06132  3.06132  0.00000 -0.12265
      13     C     3.07026  3.07026  0.00000 -0.14052
      14     C     3.06900  3.06900  0.00000 -0.13801
      15     C     3.06808  3.06808  0.00000 -0.13616
      16     C     3.06684  3.06684  0.00000 -0.13368
      17     C     3.07071  3.07071  0.00000 -0.14142
      18     C     3.07882  3.07882  0.00000 -0.15764
      19     C     3.07709  3.07709  0.00000 -0.15419
      20     C     2.95114  2.95114  0.00000  0.09773
      21     H     0.36016  0.36016  0.00000  0.27968
      22     O     4.23421  4.23421  0.00000 -0.46841
      23     H     0.42629  0.42629  0.00000  0.14743
      24     H     0.42550  0.42550  0.00000  0.14899
      25     H     0.42849  0.42849  0.00000  0.14302
      26     H     0.42809  0.42809  0.00000  0.14383
      27     H     0.42886  0.42886  0.00000  0.14227
      28     H     0.42980  0.42980  0.00000  0.14041
      29     H     0.42607  0.42607  0.00000  0.14785
      30     H     0.43240  0.43240  0.00000  0.13519
      31     H     0.43359  0.43359  0.00000  0.13283
      32     N     3.75933  3.75933  0.00000 -0.51865
      33     H     0.42965  0.42965  0.00000  0.14070
      34     H     0.42551  0.42551  0.00000  0.14898
      35     H     0.37919  0.37919  0.00000  0.24163
      36     H     0.37899  0.37899  0.00000  0.24202

   Total alpha = 73.00000, Total beta = 73.00000, Total charge = -0.00000

*** Psi4 exiting successfully. Buy a developer a beer!
