                               Psi4 1.5 release

  ==> Input File <==

--------------------------------------------------------------------------
molecule {
0 1
 C    1.300351   -0.052119   -1.334815
 N    0.620921   -0.319449   -0.032486
 C   -0.813550   -0.643144   -0.179126
 C   -1.711701    0.242226   -1.097366
 C    0.859899    0.703189    1.032505
 H   -1.289584   -0.721045    0.814525
 H   -0.886055   -1.673660   -0.569962
 N   -3.040402   -0.099160   -1.035921
 O   -1.318753    1.166108   -1.811889
 C    2.836595   -0.081864   -1.218828
 H    0.968290   -0.810787   -2.063339
 H    0.961008    0.921480   -1.724972
 C    1.841596    0.175871    2.091251
 H    1.234914    1.632611    0.573048
 H   -0.087864    1.000064    1.511828
 H    3.174932   -1.016251   -0.768091
 H    3.293821   -0.003940   -2.206483
 H    2.009482    0.923140    2.868426
 H    1.451397   -0.724496    2.568541
 H   -3.388900   -0.610671   -0.243144
 H   -3.683908    0.477742   -1.551976
 H    3.211041    0.749011   -0.620044
 H    2.807879   -0.069544    1.649989
}
set optking {
  frozen_dihedral = ("
    1 2 3 4
    10 1 2 5
    13 5 2 1
    2 3 4 8
    3 4 8 20
  ")
}
set {
  geom_maxiter 400
  g_convergence GAU_LOOSE
  dynamic_level 1
}
memory 8.166666666666666GB
set_num_threads(2)
psi4_io.set_default_path("/scratch/bdw2292/Psi4-4_27_Index_0-farH_in17")
for _ in range(1):
  try:
    set opt_coordinates both
    optimize('wb97x-d/6-311G')
    break
  except OptimizationConvergenceError:
    break
  else:
    try:
      set opt_coordinates cartesian
      optimize('wb97x-d/6-311G')
      break
    except OptimizationConvergenceError:
      pass
clean()
--------------------------------------------------------------------------

    Molecular point group: c1
  Charge       = 0
  Multiplicity = 1
  Basis Set: 6-311G
    Blend: 6-311G
  Basis Set: (6-311G AUX)
    Blend: CC-PVTZ-JKFIT
  @DF-RKS Final Energy:  -421.63613443670323
    Total Energy =                       -421.6361344367031734
    Molecular point group: c1
  Basis Set: 6-311G
    Blend: 6-311G
  Basis Set: (6-311G AUX)
    Blend: CC-PVTZ-JKFIT
  Basis Set: 6-311G
    Blend: 6-311G
  Basis Set: (6-311G AUX)
    Blend: CC-PVTZ-JKFIT
  @DF-RKS Final Energy:  -421.61694771096575
    Total Energy =                       -421.6169477109657464
  Basis Set: 6-311G
    Blend: 6-311G
  Basis Set: (6-311G AUX)
    Blend: CC-PVTZ-JKFIT
  Basis Set: 6-311G
    Blend: 6-311G
  @DF-RKS Final Energy:  -421.63922668532075
    Total Energy =                       -421.6392266853208071
  @DF-RKS Final Energy:  -421.63995173291295
    Total Energy =                       -421.6399517329128912
  @DF-RKS Final Energy:  -421.64020016716239
    Total Energy =                       -421.6402001671623907
  @DF-RKS Final Energy:  -421.64032425451057
    Total Energy =                       -421.6403242545105172
  @DF-RKS Final Energy:  -421.63776805755572
    Total Energy =                       -421.6377680575557179
  @DF-RKS Final Energy:  -421.64032424886670
    Total Energy =                       -421.6403242488667047
  @DF-RKS Final Energy:  -421.64033450857966
    Total Energy =                       -421.6403345085795991
  Basis Set: (6-311G AUX)
    Blend: CC-PVTZ-JKFIT
  Basis Set: 6-311G
    Blend: 6-311G
  Basis Set: (6-311G AUX)
    Blend: CC-PVTZ-JKFIT
  @DF-RKS Final Energy:  -421.64034558165605
    Total Energy =                       -421.6403455816560495
  Basis Set: 6-311G
    Blend: 6-311G
  Basis Set: (6-311G AUX)
    Blend: CC-PVTZ-JKFIT
  Charge       = 0
  Multiplicity = 1
  Basis Set: 6-311G
    Blend: 6-311G
  Basis Set: (6-311G AUX)
    Blend: CC-PVTZ-JKFIT

    Orbital Energies [Eh]
    ---------------------

    Doubly Occupied:

       1A    -19.216727     2A    -14.458492     3A    -14.417475
       4A    -10.403240     5A    -10.327311     6A    -10.304327
       7A    -10.292549     8A    -10.262466     9A    -10.259575
      10A     -1.153128    11A     -1.020573    12A     -1.016410
      13A     -0.859591    14A     -0.854300    15A     -0.790424
      16A     -0.720319    17A     -0.700179    18A     -0.664666
      19A     -0.630982    20A     -0.582528    21A     -0.571488
      22A     -0.560955    23A     -0.528532    24A     -0.522204
      25A     -0.499106    26A     -0.493238    27A     -0.472371
      28A     -0.463795    29A     -0.454955    30A     -0.438377
      31A     -0.426186    32A     -0.417012    33A     -0.406880
      34A     -0.357096    35A     -0.345452    36A     -0.271700

  @DF-RKS Final Energy:  -421.64035073066492

   => Energetics <=

    Nuclear Repulsion Energy =            482.9106816428260913
    One-Electron Energy =               -1528.7868887873653421
    Two-Electron Energy =                 665.5528935015667003
    DFT Exchange-Correlation Energy =     -41.3021001492649731
    Empirical Dispersion Energy =          -0.0149369384275085
    VV10 Nonlocal Energy =                  0.0000000000000000
    Total Energy =                       -421.6403507306649772

  Dipole Moment: [D]
     X:    -2.6157      Y:    -0.6927      Z:     2.3243     Total:     3.5671

    Molecular point group: c1
  Basis Set: 6-311G
    Blend: 6-311G
  Basis Set: (6-311G AUX)
    Blend: CC-PVTZ-JKFIT

  -Total Gradient:
     Atom            X                  Y                   Z
    ------   -----------------  -----------------  -----------------
       1        0.000043243899     0.005152381949    -0.000443906059
       2       -0.000223725333    -0.010557055771    -0.001726961381
       3       -0.001347651098     0.009278514976     0.004288944682
       4        0.000432762223    -0.002490684490    -0.003040078518
       5       -0.000258955940    -0.001336481611     0.001722100362
       6       -0.000020386728     0.000003693776     0.000146542690
       7        0.000008928799    -0.000083662937    -0.000013156327
       8        0.000368946029    -0.005357100407    -0.001430147034
       9        0.000104771811     0.000116876300    -0.000007649210
      10        0.000253026473     0.001043765036     0.000009223782
      11       -0.000038992728    -0.000039055013     0.000071397146
      12        0.000049063976     0.000093083160     0.000025401434
      13        0.001047671641     0.000245784656    -0.000634058086
      14        0.000102129655     0.000116975432    -0.000107414758
      15       -0.000078147732     0.000008411687     0.000036581559
      16       -0.000008692630    -0.000104953232     0.000047304340
      17        0.000021738405    -0.000012000310    -0.000107120138
      18       -0.000007977740    -0.000024105338     0.000015345922
      19        0.000011993110    -0.000065712458     0.000074468968
      20       -0.000284513738     0.003931780224     0.001302901749
      21       -0.000023661539     0.000032443323    -0.000021845654
      22       -0.000009775406     0.000092440569    -0.000017938205
      23       -0.000004479361     0.000044022633    -0.000068667598

  **** Optimization is complete! (in 4 steps) ****
    Final optimized geometry and variables:
    Molecular point group: c1

    Geometry (in Angstrom), charge = 0, multiplicity = 1:

    C            1.199345265163    -0.428765028977    -0.904328864111
    N            0.492014179411    -0.347400221033     0.384641920141
    C           -0.947416765952    -0.514939106530     0.371499847934
    C           -1.758151724748     0.256201668641    -0.673006207007
    C            1.003775819067     0.689073663696     1.298613238231
    H           -1.333609455758    -0.292516111815     1.369398761652
    H           -1.182715465590    -1.572797410165     0.192303545415
    N           -3.114374173391     0.135107712540    -0.529718554498
    O           -1.262924309551     0.884412955954    -1.620975904458
    C            2.659464034934    -0.842412277906    -0.736954782122
    H            0.682969696078    -1.173215777364    -1.514414141665
    H            1.136435182491     0.517254361130    -1.450744327781
    C            1.828075417356     0.108970526226     2.447845252858
    H            1.606975733919     1.409190496822     0.732635451248
    H            0.165983699761     1.264099296903     1.706321015533
    H            2.731949056479    -1.774984412827    -0.174900840935
    H            3.121496412470    -0.985410462859    -1.716330704506
    H            2.185421254645     0.900325615197     3.112457556957
    H            1.223493928058    -0.587764003383     3.031727124667
    H           -3.538202379575    -0.138937773506     0.337178296752
    H           -3.696615404989     0.581887978079    -1.216085757062
    H            3.237204928541    -0.079603394417    -0.210904605668
    H            2.688918092993    -0.439880027569     2.067196452454

*** Psi4 exiting successfully. Buy a developer a beer!
