                               Psi4 1.5 release

  ==> Input File <==

--------------------------------------------------------------------------
molecule {
0 1
 C    1.246533    0.161043   -1.010590
 N    0.540484    0.342809    0.253242
 C   -0.833856   -0.017314    0.533042
 C   -1.792092   -0.294190   -0.619225
 C    1.195898    1.131732    1.280978
 H   -1.286931    0.790036    1.127276
 H   -0.907555   -0.914418    1.167557
 N   -3.083214   -0.493432   -0.200558
 O   -1.491433   -0.439526   -1.814693
 C    2.552782   -0.623055   -0.858356
 H    0.589624   -0.344611   -1.708089
 H    1.469918    1.141726   -1.455622
 C    1.779689    0.306182    2.433696
 H    1.996707    1.704973    0.808467
 H    0.492699    1.869675    1.691770
 H    2.357316   -1.606114   -0.429745
 H    3.029333   -0.757613   -1.832249
 H    2.248189    0.950558    3.181005
 H    0.997726   -0.270270    2.930326
 H   -3.418419   -0.168788    0.686990
 H   -3.759268   -0.735645   -0.901761
 H    3.264010   -0.107659   -0.210486
 H    2.525481   -0.394332    2.062437
}
memory 8.166666666666666GB
set_num_threads(2)
psi4_io.set_default_path("/scratch/bdw2292/Psi4-4_27_Index_0-farH_in17")
set freeze_core True
E, wfn = energy('wb97x-d/6-311+G*',return_wfn=True)
oeprop(wfn,"WIBERG_LOWDIN_INDICES")
clean()
--------------------------------------------------------------------------

    Molecular point group: c1

    Geometry (in Angstrom), charge = 0, multiplicity = 1:

       Center              X                  Y                   Z               Mass
    ------------   -----------------  -----------------  -----------------  -----------------
         C            1.246532928561     0.161043109470    -1.010589938239    12.000000000000
         N            0.540483928561     0.342809109470     0.253242061761    14.003074004430
         C           -0.833856071439    -0.017313890530     0.533042061761    12.000000000000
         C           -1.792092071439    -0.294189890530    -0.619224938239    12.000000000000
         C            1.195897928561     1.131732109470     1.280978061761    12.000000000000
         H           -1.286931071439     0.790036109470     1.127276061761     1.007825032230
         H           -0.907555071439    -0.914417890530     1.167557061761     1.007825032230
         N           -3.083214071439    -0.493431890530    -0.200557938239    14.003074004430
         O           -1.491433071439    -0.439525890530    -1.814692938239    15.994914619570
         C            2.552781928561    -0.623054890530    -0.858355938239    12.000000000000
         H            0.589623928561    -0.344610890530    -1.708088938239     1.007825032230
         H            1.469917928561     1.141726109470    -1.455621938239     1.007825032230
         C            1.779688928561     0.306182109470     2.433696061761    12.000000000000
         H            1.996706928561     1.704973109470     0.808467061761     1.007825032230
         H            0.492698928561     1.869675109470     1.691770061761     1.007825032230
         H            2.357315928561    -1.606113890530    -0.429744938239     1.007825032230
         H            3.029332928561    -0.757612890530    -1.832248938239     1.007825032230
         H            2.248188928561     0.950558109470     3.181005061761     1.007825032230
         H            0.997725928561    -0.270269890530     2.930326061761     1.007825032230
         H           -3.418419071439    -0.168787890530     0.686990061761     1.007825032230
         H           -3.759268071439    -0.735644890530    -0.901760938239     1.007825032230
         H            3.264009928561    -0.107658890530    -0.210485938239     1.007825032230
         H            2.525480928561    -0.394331890530     2.062437061761     1.007825032230

  Charge       = 0
  Multiplicity = 1
  Basis Set: 6-311+G*
    Blend: 6-311+G*
  Basis Set: (6-311+G* AUX)
    Blend: HEAVY-AUG-CC-PVTZ-JKFIT

    Orbital Energies [Eh]
    ---------------------

    Doubly Occupied:

       1A    -19.219941     2A    -14.461139     3A    -14.413834
       4A    -10.404447     5A    -10.329892     6A    -10.305417
       7A    -10.288527     8A    -10.265076     9A    -10.256216
      10A     -1.140396    11A     -1.018818    12A     -1.014347
      13A     -0.857867    14A     -0.853286    15A     -0.792114
      16A     -0.719183    17A     -0.703059    18A     -0.664820
      19A     -0.627898    20A     -0.583981    21A     -0.573129
      22A     -0.556989    23A     -0.530909    24A     -0.514818
      25A     -0.504720    26A     -0.500541    27A     -0.480557
      28A     -0.465281    29A     -0.456819    30A     -0.443373
      31A     -0.432349    32A     -0.420577    33A     -0.413209
      34A     -0.364846    35A     -0.341521    36A     -0.271032

  @DF-RKS Final Energy:  -421.75741093693347

   => Energetics <=

    Nuclear Repulsion Energy =            480.9168660512134466
    One-Electron Energy =               -1524.9687068168552742
    Two-Electron Energy =                 663.6267417319256765
    DFT Exchange-Correlation Energy =     -41.3177218279728180
    Empirical Dispersion Energy =          -0.0145900752445508
    VV10 Nonlocal Energy =                  0.0000000000000000
    Total Energy =                       -421.7574109369335247

  Dipole Moment: [D]
     X:    -2.0253      Y:     0.6273      Z:     3.0362     Total:     3.7032

*** Psi4 exiting successfully. Buy a developer a beer!
