                               Psi4 1.5 release

  ==> Input File <==

--------------------------------------------------------------------------
molecule {
0 1
 C    0.752723    0.329607   -1.887433
 N    0.210542    0.676122   -0.583021
 C   -1.150275    0.377652   -0.264198
 C   -1.367919   -0.829118    0.657692
 C    0.951871    1.611111    0.251354
 H   -1.728367    0.213585   -1.182381
 H   -1.622012    1.234029    0.239972
 N   -2.682662   -1.166477    0.838175
 O   -0.457813   -1.415931    1.257940
 C    2.091093   -0.408840   -1.810275
 H    0.026176   -0.308358   -2.395104
 H    0.876461    1.231216   -2.510516
 C    1.702335    0.980401    1.427850
 H    1.660506    2.145489   -0.391579
 H    0.256826    2.370906    0.636182
 H    1.986787   -1.297356   -1.187288
 H    2.428149   -0.704805   -2.806701
 H    2.210174    1.752120    2.013643
 H    1.016643    0.432626    2.071479
 H   -3.396995   -0.885767    0.192005
 H   -2.888815   -1.927811    1.460490
 H    2.863887    0.225031   -1.371117
 H    2.444614    0.266393    1.070022
}
memory 8.166666666666666GB
set_num_threads(2)
psi4_io.set_default_path("/scratch/bdw2292/Psi4-4_27_Index_0-farH_in17")
set freeze_core True
E, wfn = energy('wb97x-d/6-311+G*',return_wfn=True)
oeprop(wfn,"WIBERG_LOWDIN_INDICES")
clean()
--------------------------------------------------------------------------

    Molecular point group: c1

    Geometry (in Angstrom), charge = 0, multiplicity = 1:

       Center              X                  Y                   Z               Mass
    ------------   -----------------  -----------------  -----------------  -----------------
         C            0.752722924225     0.329606777465    -1.887433085460    12.000000000000
         N            0.210541924225     0.676121777465    -0.583021085460    14.003074004430
         C           -1.150275075775     0.377651777465    -0.264198085460    12.000000000000
         C           -1.367919075775    -0.829118222535     0.657691914540    12.000000000000
         C            0.951870924225     1.611110777465     0.251353914540    12.000000000000
         H           -1.728367075775     0.213584777465    -1.182381085460     1.007825032230
         H           -1.622012075775     1.234028777465     0.239971914540     1.007825032230
         N           -2.682662075775    -1.166477222535     0.838174914540    14.003074004430
         O           -0.457813075775    -1.415931222535     1.257939914540    15.994914619570
         C            2.091092924225    -0.408840222535    -1.810275085460    12.000000000000
         H            0.026175924225    -0.308358222535    -2.395104085460     1.007825032230
         H            0.876460924225     1.231215777465    -2.510516085460     1.007825032230
         C            1.702334924225     0.980400777465     1.427849914540    12.000000000000
         H            1.660505924225     2.145488777465    -0.391579085460     1.007825032230
         H            0.256825924225     2.370905777465     0.636181914540     1.007825032230
         H            1.986786924225    -1.297356222535    -1.187288085460     1.007825032230
         H            2.428148924225    -0.704805222535    -2.806701085460     1.007825032230
         H            2.210173924225     1.752119777465     2.013642914540     1.007825032230
         H            1.016642924225     0.432625777465     2.071478914540     1.007825032230
         H           -3.396995075775    -0.885767222535     0.192004914540     1.007825032230
         H           -2.888815075775    -1.927811222535     1.460489914540     1.007825032230
         H            2.863886924225     0.225030777465    -1.371117085460     1.007825032230
         H            2.444613924225     0.266392777465     1.070021914540     1.007825032230

  Charge       = 0
  Multiplicity = 1
  Basis Set: 6-311+G*
    Blend: 6-311+G*
  Basis Set: (6-311+G* AUX)
    Blend: HEAVY-AUG-CC-PVTZ-JKFIT

    Orbital Energies [Eh]
    ---------------------

    Doubly Occupied:

       1A    -19.212076     2A    -14.457603     3A    -14.414297
       4A    -10.389768     5A    -10.325591     6A    -10.306763
       7A    -10.301674     8A    -10.261039     9A    -10.248493
      10A     -1.131560    11A     -1.021328    12A     -1.011123
      13A     -0.858327    14A     -0.851114    15A     -0.786187
      16A     -0.719001    17A     -0.697704    18A     -0.657684
      19A     -0.633718    20A     -0.577498    21A     -0.570420
      22A     -0.568224    23A     -0.527958    24A     -0.512619
      25A     -0.496320    26A     -0.492268    27A     -0.474133
      28A     -0.469414    29A     -0.456718    30A     -0.436266
      31A     -0.427023    32A     -0.420226    33A     -0.409054
      34A     -0.359170    35A     -0.340681    36A     -0.274752

  @DF-RKS Final Energy:  -421.76663120237339

   => Energetics <=

    Nuclear Repulsion Energy =            487.4296093736098214
    One-Electron Energy =               -1538.2010600464718664
    Two-Electron Energy =                 670.3330310353634331
    DFT Exchange-Correlation Energy =     -41.3129886650582989
    Empirical Dispersion Energy =          -0.0152228998164169
    VV10 Nonlocal Energy =                  0.0000000000000000
    Total Energy =                       -421.7666312023733894

  Dipole Moment: [D]
     X:    -3.2346      Y:     1.0539      Z:    -1.9051     Total:     3.8991

*** Psi4 exiting successfully. Buy a developer a beer!
