                               Psi4 1.5 release

  ==> Input File <==

--------------------------------------------------------------------------
molecule {
0 1
 C    1.620027   -0.449941   -1.380583
 N    0.599841   -0.126824   -0.338718
 C   -0.761990   -0.118350   -0.908345
 C   -1.893497   -0.184468    0.149865
 C    0.894560    1.148255    0.415060
 H   -0.898054   -0.983875   -1.580949
 H   -0.918028    0.773928   -1.540789
 N   -3.146587   -0.306495   -0.395235
 O   -1.717098   -0.112886    1.366607
 C    3.018704   -0.731068   -0.795110
 H    1.282312   -1.347445   -1.926368
 H    1.657674    0.366743   -2.122450
 C    1.420982    0.852190    1.830351
 H    1.606052    1.773478   -0.149730
 H   -0.014845    1.765346    0.499237
 H    2.970651   -1.506170   -0.028188
 H    3.698450   -1.075520   -1.576363
 H    1.625814    1.778138    2.369783
 H    0.676586    0.291731    2.399923
 H   -3.252047   -0.654745   -1.332896
 H   -3.914203   -0.417738    0.246116
 H    3.456292    0.164787   -0.353574
 H    2.339813    0.266240    1.804025
}
set optking {
  frozen_dihedral = ("
    1 2 3 4
    10 1 2 5
    13 5 2 1
    2 3 4 8
    3 4 8 20
  ")
}
set {
  geom_maxiter 400
  g_convergence GAU_LOOSE
  dynamic_level 1
}
memory 8.166666666666666GB
set_num_threads(2)
psi4_io.set_default_path("/scratch/bdw2292/Psi4-4_27_Index_0-farH_in17")
for _ in range(1):
  try:
    set opt_coordinates both
    optimize('wb97x-d/6-311G')
    break
  except OptimizationConvergenceError:
    break
  else:
    try:
      set opt_coordinates cartesian
      optimize('wb97x-d/6-311G')
      break
    except OptimizationConvergenceError:
      pass
clean()
--------------------------------------------------------------------------

    Molecular point group: c1
  Charge       = 0
  Multiplicity = 1
  Basis Set: 6-311G
    Blend: 6-311G
  Basis Set: (6-311G AUX)
    Blend: CC-PVTZ-JKFIT
  @DF-RKS Final Energy:  -421.63742183867151
    Total Energy =                       -421.6374218386715143
    Molecular point group: c1
  Basis Set: 6-311G
    Blend: 6-311G
  Basis Set: (6-311G AUX)
    Blend: CC-PVTZ-JKFIT
  Basis Set: 6-311G
    Blend: 6-311G
  Basis Set: (6-311G AUX)
    Blend: CC-PVTZ-JKFIT
  @DF-RKS Final Energy:  -421.64075932541891
    Total Energy =                       -421.6407593254189692
  Basis Set: 6-311G
    Blend: 6-311G
  Basis Set: (6-311G AUX)
    Blend: CC-PVTZ-JKFIT
  Basis Set: 6-311G
    Blend: 6-311G
  @DF-RKS Final Energy:  -421.64094758689168
    Total Energy =                       -421.6409475868916275
  @DF-RKS Final Energy:  -421.64121552476161
    Total Energy =                       -421.6412155247616056
  Basis Set: (6-311G AUX)
    Blend: CC-PVTZ-JKFIT
  Basis Set: 6-311G
    Blend: 6-311G
  Basis Set: (6-311G AUX)
    Blend: CC-PVTZ-JKFIT
  @DF-RKS Final Energy:  -421.64126468840044
    Total Energy =                       -421.6412646884003834
  Basis Set: 6-311G
    Blend: 6-311G
  Basis Set: (6-311G AUX)
    Blend: CC-PVTZ-JKFIT
  Charge       = 0
  Multiplicity = 1
  Basis Set: 6-311G
    Blend: 6-311G
  Basis Set: (6-311G AUX)
    Blend: CC-PVTZ-JKFIT

    Orbital Energies [Eh]
    ---------------------

    Doubly Occupied:

       1A    -19.217394     2A    -14.458719     3A    -14.421992
       4A    -10.406003     5A    -10.328322     6A    -10.309358
       7A    -10.296302     8A    -10.267612     9A    -10.244468
      10A     -1.154519    11A     -1.027060    12A     -1.017939
      13A     -0.863921    14A     -0.850905    15A     -0.791425
      16A     -0.719419    17A     -0.696353    18A     -0.662592
      19A     -0.635456    20A     -0.585911    21A     -0.571338
      22A     -0.560550    23A     -0.537736    24A     -0.524491
      25A     -0.496172    26A     -0.482370    27A     -0.473162
      28A     -0.463716    29A     -0.454479    30A     -0.438357
      31A     -0.428413    32A     -0.417762    33A     -0.402230
      34A     -0.356285    35A     -0.338635    36A     -0.281955

  @DF-RKS Final Energy:  -421.64127141349826

   => Energetics <=

    Nuclear Repulsion Energy =            485.3927293299382200
    One-Electron Energy =               -1533.7167640363968530
    Two-Electron Energy =                 667.9977479067154036
    DFT Exchange-Correlation Energy =     -41.2999644820972804
    Empirical Dispersion Energy =          -0.0150201316577221
    VV10 Nonlocal Energy =                  0.0000000000000000
    Total Energy =                       -421.6412714134982025

  Dipole Moment: [D]
     X:    -1.5759      Y:    -0.9484      Z:    -3.8643     Total:     4.2797

    Molecular point group: c1
  Basis Set: 6-311G
    Blend: 6-311G
  Basis Set: (6-311G AUX)
    Blend: CC-PVTZ-JKFIT

  -Total Gradient:
     Atom            X                  Y                   Z
    ------   -----------------  -----------------  -----------------
       1       -0.000169214326     0.001959587485    -0.000776785213
       2        0.000167201041    -0.001453421866     0.001147545101
       3       -0.000073512483     0.000577059211    -0.000222335222
       4        0.000306916649    -0.003867967813     0.001201998887
       5        0.000406472416     0.000086791022    -0.000561124103
       6       -0.000052859320    -0.000030842129    -0.000048894313
       7       -0.000016998701     0.000011579962    -0.000066715371
       8       -0.000110347338     0.006212856704    -0.002747176980
       9       -0.000103964445    -0.000012883869    -0.000088335358
      10       -0.000076013136    -0.000247537066     0.000058268229
      11       -0.000028225318    -0.000034298696    -0.000024763524
      12       -0.000009041791    -0.000037790201     0.000035424080
      13       -0.000308686604     0.000116248731     0.000121567592
      14       -0.000043550633     0.000035963685     0.000067249558
      15       -0.000064741507     0.000046572960     0.000031993771
      16       -0.000029447088     0.000013478710    -0.000040333649
      17       -0.000014710848    -0.000000956978     0.000002314815
      18       -0.000036766472    -0.000015855025     0.000032518899
      19       -0.000059540669    -0.000013668907     0.000007201014
      20       -0.000029315904    -0.003434575336     0.001751769500
      21        0.000042473886    -0.000008772263     0.000009335115
      22       -0.000033431329    -0.000002865779    -0.000003958352
      23       -0.000051497662     0.000007599403    -0.000051278527

  **** Optimization is complete! (in 6 steps) ****
    Final optimized geometry and variables:
    Molecular point group: c1

    Geometry (in Angstrom), charge = 0, multiplicity = 1:

    C            1.612576069990    -0.477011991694    -1.359510358759
    N            0.598469841243    -0.099138935189    -0.367462338450
    C           -0.751420547324    -0.224954805078    -0.886226325130
    C           -1.839121767364    -0.226101233382     0.177480289449
    C            0.884037104810     1.183619625076     0.313321612497
    H           -0.820661220336    -1.166866966055    -1.437867163423
    H           -1.011573288138     0.576989534126    -1.604515686987
    N           -3.093472700637    -0.474135009986    -0.312094954493
    O           -1.659597518475     0.057060571453     1.369656454489
    C            2.982506728041    -0.735216948555    -0.741588333380
    H            1.274701492314    -1.394672678173    -1.847306710079
    H            1.703769288783     0.292820207465    -2.148616471341
    C            1.384678111281     0.997222349025     1.741563549615
    H            1.613789923641     1.753992458306    -0.279393864429
    H           -0.028620957871     1.782193385105     0.340379846852
    H            2.897973537943    -1.480409299755     0.049448512623
    H            3.674546353468    -1.103865734945    -1.501519692159
    H            1.599248451330     1.964683987369     2.203924454566
    H            0.615280745806     0.489686719592     2.318723536312
    H           -3.243597349916    -0.930752561852    -1.192494109251
    H           -3.855829793901    -0.453591574664     0.341709369153
    H            3.411813446641     0.171485748610    -0.313371708638
    H            2.293696440354     0.395520613530     1.764639086685

*** Psi4 exiting successfully. Buy a developer a beer!
