                               Psi4 1.5 release

  ==> Input File <==

--------------------------------------------------------------------------
molecule {
0 1
 C    1.277281   -0.831746   -0.811906
 N    0.549484    0.087052    0.102192
 C   -0.949088    0.087040   -0.078827
 C   -1.736758   -1.003672   -0.882395
 C    1.103921    1.478289    0.168457
 H   -1.262995    1.048021   -0.524226
 H   -1.396732    0.105530    0.930650
 N   -3.071625   -0.704204   -1.012237
 O   -1.286224   -2.073126   -1.296617
 C    2.731307   -1.086378   -0.366477
 H    0.764146   -1.803419   -0.802534
 H    1.217046   -0.453733   -1.845895
 C    1.875080    1.703490    1.479720
 H    1.749482    1.665510   -0.705533
 H    0.301748    2.229270    0.089538
 H    2.767926   -1.421689    0.671345
 H    3.187042   -1.863650   -0.982324
 H    2.286462    2.713378    1.518161
 H    1.219735    1.574773    2.342672
 H   -3.389308    0.243707   -0.904828
 H   -3.635119   -1.340269   -1.551469
 H    3.345063   -0.190379   -0.464654
 H    2.703528    1.001512    1.578858
}
set optking {
  frozen_dihedral = ("
    1 2 3 4
    10 1 2 5
    13 5 2 1
    2 3 4 8
    3 4 8 20
  ")
}
set {
  geom_maxiter 400
  g_convergence GAU_LOOSE
  dynamic_level 1
}
memory 8.166666666666666GB
set_num_threads(2)
psi4_io.set_default_path("/scratch/bdw2292/Psi4-4_27_Index_0-farH_in17")
for _ in range(1):
  try:
    set opt_coordinates both
    optimize('wb97x-d/6-311G')
    break
  except OptimizationConvergenceError:
    break
  else:
    try:
      set opt_coordinates cartesian
      optimize('wb97x-d/6-311G')
      break
    except OptimizationConvergenceError:
      pass
clean()
--------------------------------------------------------------------------

    Molecular point group: c1
  Charge       = 0
  Multiplicity = 1
  Basis Set: 6-311G
    Blend: 6-311G
  Basis Set: (6-311G AUX)
    Blend: CC-PVTZ-JKFIT
  @DF-RKS Final Energy:  -421.62321739263803
    Total Energy =                       -421.6232173926380256
    Molecular point group: c1
  Basis Set: 6-311G
    Blend: 6-311G
  Basis Set: (6-311G AUX)
    Blend: CC-PVTZ-JKFIT
  Basis Set: 6-311G
    Blend: 6-311G
  Basis Set: (6-311G AUX)
    Blend: CC-PVTZ-JKFIT
  @DF-RKS Final Energy:  -421.53710580355340
    Total Energy =                       -421.5371058035534020
  Basis Set: 6-311G
    Blend: 6-311G
  Basis Set: (6-311G AUX)
    Blend: CC-PVTZ-JKFIT
  Basis Set: 6-311G
    Blend: 6-311G
  @DF-RKS Final Energy:  -421.61443652367797
    Total Energy =                       -421.6144365236779663
  @DF-RKS Final Energy:  -421.62849779888484
    Total Energy =                       -421.6284977988848368
  @DF-RKS Final Energy:  -421.62907389004579
    Total Energy =                       -421.6290738900457313
  @DF-RKS Final Energy:  -421.63155664324432
    Total Energy =                       -421.6315566432443234
  @DF-RKS Final Energy:  -421.60043191476018
    Total Energy =                       -421.6004319147601791
  @DF-RKS Final Energy:  -421.63155664480479
    Total Energy =                       -421.6315566448047889
  @DF-RKS Final Energy:  -421.63206052888467
    Total Energy =                       -421.6320605288846650
  @DF-RKS Final Energy:  -421.63243560170343
    Total Energy =                       -421.6324356017034916
  @DF-RKS Final Energy:  -421.63275791094253
    Total Energy =                       -421.6327579109425301
  @DF-RKS Final Energy:  -421.63306398521632
    Total Energy =                       -421.6330639852163245
  @DF-RKS Final Energy:  -421.63335764989733
    Total Energy =                       -421.6333576498973912
  @DF-RKS Final Energy:  -421.63362387826487
    Total Energy =                       -421.6336238782649275
  @DF-RKS Final Energy:  -421.63383584682708
    Total Energy =                       -421.6338358468270826
  @DF-RKS Final Energy:  -421.63399043767089
    Total Energy =                       -421.6339904376709455
  @DF-RKS Final Energy:  -421.63411494598000
    Total Energy =                       -421.6341149459800590
  @DF-RKS Final Energy:  -421.63421980508502
    Total Energy =                       -421.6342198050849674
  @DF-RKS Final Energy:  -421.63426202654387
    Total Energy =                       -421.6342620265438086
  Basis Set: (6-311G AUX)
    Blend: CC-PVTZ-JKFIT
  Basis Set: 6-311G
    Blend: 6-311G
  Basis Set: (6-311G AUX)
    Blend: CC-PVTZ-JKFIT
  @DF-RKS Final Energy:  -421.63426668419157
    Total Energy =                       -421.6342666841915161
  Basis Set: 6-311G
    Blend: 6-311G
  Basis Set: (6-311G AUX)
    Blend: CC-PVTZ-JKFIT
  Charge       = 0
  Multiplicity = 1
  Basis Set: 6-311G
    Blend: 6-311G
  Basis Set: (6-311G AUX)
    Blend: CC-PVTZ-JKFIT

    Orbital Energies [Eh]
    ---------------------

    Doubly Occupied:

       1A    -19.220065     2A    -14.460338     3A    -14.409426
       4A    -10.411080     5A    -10.329671     6A    -10.306544
       7A    -10.291060     8A    -10.266826     9A    -10.249383
      10A     -1.157463    11A     -1.021738    12A     -1.015022
      13A     -0.858418    14A     -0.854163    15A     -0.792887
      16A     -0.718980    17A     -0.706359    18A     -0.664616
      19A     -0.627568    20A     -0.585520    21A     -0.574920
      22A     -0.558836    23A     -0.528792    24A     -0.513252
      25A     -0.504337    26A     -0.486519    27A     -0.478697
      28A     -0.462270    29A     -0.454514    30A     -0.448457
      31A     -0.431850    32A     -0.415516    33A     -0.408557
      34A     -0.357239    35A     -0.338991    36A     -0.261702

  @DF-RKS Final Energy:  -421.63427051294525

   => Energetics <=

    Nuclear Repulsion Energy =            487.2728561252783379
    One-Electron Energy =               -1537.4803537707371106
    Two-Electron Energy =                 669.8979461837341205
    DFT Exchange-Correlation Energy =     -41.3095975418560641
    Empirical Dispersion Energy =          -0.0151215093645635
    VV10 Nonlocal Energy =                  0.0000000000000000
    Total Energy =                       -421.6342705129452497

  Dipole Moment: [D]
     X:    -2.7000      Y:     2.4893      Z:    -0.7411     Total:     3.7465

    Molecular point group: c1
  Basis Set: 6-311G
    Blend: 6-311G
  Basis Set: (6-311G AUX)
    Blend: CC-PVTZ-JKFIT

  -Total Gradient:
     Atom            X                  Y                   Z
    ------   -----------------  -----------------  -----------------
       1       -0.001574619039    -0.002063915540     0.004416685007
       2       -0.000943899720     0.001830838048    -0.006410807065
       3        0.000834895096     0.000606781228     0.006266332935
       4       -0.001244838150    -0.002613637677    -0.009785728502
       5        0.002218772201    -0.001475912164     0.001799759880
       6        0.000045357018    -0.000033759496     0.000031697378
       7       -0.000008082552    -0.000021014337    -0.000020350653
       8        0.000843695572     0.003352157669     0.007445456428
       9        0.000049218492     0.000041533377    -0.000057766386
      10        0.001567310594     0.001224646468    -0.000809101556
      11        0.000031532882    -0.000005003429    -0.000054661800
      12       -0.000049312637     0.000017483255    -0.000012020118
      13       -0.001456131894     0.000800562735    -0.000195237899
      14       -0.000026575059     0.000007354123    -0.000018993134
      15        0.000020861608    -0.000037984354     0.000042154812
      16        0.000008833257    -0.000011064183    -0.000045240581
      17       -0.000012859981    -0.000002851803    -0.000020880753
      18       -0.000036846704    -0.000042352795    -0.000022137968
      19        0.000056336025    -0.000013117508    -0.000011607435
      20       -0.000335732122    -0.001848754060    -0.002726553787
      21        0.000014030029    -0.000009311752    -0.000005642283
      22        0.000029223963    -0.000021829365    -0.000051012548
      23       -0.000010524345     0.000034023784    -0.000075210168

  **** Optimization is complete! (in 14 steps) ****
    Final optimized geometry and variables:
    Molecular point group: c1

    Geometry (in Angstrom), charge = 0, multiplicity = 1:

    C            1.325823791215    -0.674655576993    -0.830507516024
    N            0.518948351249     0.516094830873    -0.578813320842
    C           -0.897497287108     0.529289982224    -0.311928353940
    C           -1.584151250319    -0.781173270786     0.047196748879
    C            1.209967835160     1.780508834317    -0.378411308426
    H           -1.460123534266     0.967387529328    -1.158188420917
    H           -1.110945577800     1.184869295107     0.542287656990
    N           -2.944255058847    -0.667588228535     0.146470223761
    O           -1.011302322229    -1.837298086244     0.356021700981
    C            2.239957444890    -1.070858914837     0.331539046184
    H            0.669074749486    -1.505056867221    -1.064648127954
    H            1.941446098785    -0.489874204983    -1.722074880957
    C            1.266723689545     2.281054104961     1.073020633528
    H            2.226503567079     1.660731279938    -0.758586049243
    H            0.742456415711     2.559172164469    -0.999277498595
    H            1.636973723217    -1.294247662038     1.211810491478
    H            2.820245195355    -1.960752605966     0.075058851198
    H            1.824894289990     3.218469263439     1.129891691466
    H            0.270301479893     2.471119036988     1.477117717345
    H           -3.452984716688     0.080088114637    -0.287001630985
    H           -3.455547785555    -1.479923779517     0.441957715874
    H            2.943355062855    -0.271463277117     0.577243530002
    H            1.754389670668     1.545977043638     1.713864349231

*** Psi4 exiting successfully. Buy a developer a beer!
