                               Psi4 1.5 release

  ==> Input File <==

--------------------------------------------------------------------------
molecule {
0 1
 C    1.254592    0.141963   -1.287233
 N    0.606825   -0.215951    0.000828
 C   -0.872778   -0.463570   -0.100409
 C   -1.733504   -0.002736   -1.325650
 C    0.954111    0.683907    1.148966
 H   -1.392041   -0.116988    0.809620
 H   -1.006722   -1.558743   -0.046598
 N   -3.077469   -0.220150   -1.141229
 O   -1.307488    0.479568   -2.376176
 C    2.790131    0.014599   -1.239199
 H    0.867985   -0.538902   -2.063180
 H    0.940034    1.156155   -1.584909
 C    1.938871   -0.003171    2.109086
 H    1.374979    1.628658    0.766201
 H    0.053722    0.992725    1.703083
 H    3.088323   -0.972187   -0.881347
 H    3.213210    0.148648   -2.236114
 H    2.181569    0.651040    2.947786
 H    1.511419   -0.922717    2.512382
 H   -3.445579   -0.330506   -0.211962
 H   -3.696569    0.102926   -1.866017
 H    3.236631    0.769649   -0.591348
 H    2.871157   -0.258905    1.605091
}
set optking {
  frozen_dihedral = ("
    1 2 3 4
    10 1 2 5
    13 5 2 1
    2 3 4 8
    3 4 8 20
  ")
}
set {
  geom_maxiter 400
  g_convergence GAU_LOOSE
  dynamic_level 1
}
memory 8.166666666666666GB
set_num_threads(2)
psi4_io.set_default_path("/scratch/bdw2292/Psi4-4_27_Index_0-farH_in17")
for _ in range(1):
  try:
    set opt_coordinates both
    optimize('wb97x-d/6-311G')
    break
  except OptimizationConvergenceError:
    break
  else:
    try:
      set opt_coordinates cartesian
      optimize('wb97x-d/6-311G')
      break
    except OptimizationConvergenceError:
      pass
clean()
--------------------------------------------------------------------------

    Molecular point group: c1
  Charge       = 0
  Multiplicity = 1
  Basis Set: 6-311G
    Blend: 6-311G
  Basis Set: (6-311G AUX)
    Blend: CC-PVTZ-JKFIT
  @DF-RKS Final Energy:  -421.62452261046241
    Total Energy =                       -421.6245226104624066
    Molecular point group: c1
  Basis Set: 6-311G
    Blend: 6-311G
  Basis Set: (6-311G AUX)
    Blend: CC-PVTZ-JKFIT
  Basis Set: 6-311G
    Blend: 6-311G
  Basis Set: (6-311G AUX)
    Blend: CC-PVTZ-JKFIT
  @DF-RKS Final Energy:  -421.54381953810127
    Total Energy =                       -421.5438195381012747
  Basis Set: 6-311G
    Blend: 6-311G
  Basis Set: (6-311G AUX)
    Blend: CC-PVTZ-JKFIT
  Basis Set: 6-311G
    Blend: 6-311G
  @DF-RKS Final Energy:  -421.61868403664613
    Total Energy =                       -421.6186840366461865
  @DF-RKS Final Energy:  -421.62955244402957
    Total Energy =                       -421.6295524440295139
  @DF-RKS Final Energy:  -421.63036916917486
    Total Energy =                       -421.6303691691748554
  @DF-RKS Final Energy:  -421.63092678773569
    Total Energy =                       -421.6309267877357456
  @DF-RKS Final Energy:  -421.63131979077167
    Total Energy =                       -421.6313197907716699
  @DF-RKS Final Energy:  -421.61013620296995
    Total Energy =                       -421.6101362029699544
  @DF-RKS Final Energy:  -421.63131978838015
    Total Energy =                       -421.6313197883801536
  @DF-RKS Final Energy:  -421.63144439862094
    Total Energy =                       -421.6314443986209426
  @DF-RKS Final Energy:  -421.63164921275290
    Total Energy =                       -421.6316492127529045
  @DF-RKS Final Energy:  -421.63174158394230
    Total Energy =                       -421.6317415839423006
  @DF-RKS Final Energy:  -421.63194216851133
    Total Energy =                       -421.6319421685113298
  @DF-RKS Final Energy:  -421.63215569339690
    Total Energy =                       -421.6321556933968964
  @DF-RKS Final Energy:  -421.63235626000568
    Total Energy =                       -421.6323562600057357
  @DF-RKS Final Energy:  -421.63239824149673
    Total Energy =                       -421.6323982414966736
  @DF-RKS Final Energy:  -421.62925268777695
    Total Energy =                       -421.6292526877770115
  Basis Set: (6-311G AUX)
    Blend: CC-PVTZ-JKFIT
  Basis Set: 6-311G
    Blend: 6-311G
  Basis Set: (6-311G AUX)
    Blend: CC-PVTZ-JKFIT
  @DF-RKS Final Energy:  -421.63165934580735
    Total Energy =                       -421.6316593458073498
  Basis Set: 6-311G
    Blend: 6-311G
  Basis Set: (6-311G AUX)
    Blend: CC-PVTZ-JKFIT
  Charge       = 0
  Multiplicity = 1
  Basis Set: 6-311G
    Blend: 6-311G
  Basis Set: (6-311G AUX)
    Blend: CC-PVTZ-JKFIT

    Orbital Energies [Eh]
    ---------------------

    Doubly Occupied:

       1A    -19.221984     2A    -14.460240     3A    -14.411187
       4A    -10.412802     5A    -10.332236     6A    -10.306361
       7A    -10.288210     8A    -10.264434     9A    -10.255239
      10A     -1.158592    11A     -1.022070    12A     -1.015298
      13A     -0.860911    14A     -0.854684    15A     -0.793695
      16A     -0.720843    17A     -0.705160    18A     -0.666825
      19A     -0.628406    20A     -0.585956    21A     -0.573925
      22A     -0.558298    23A     -0.529142    24A     -0.514764
      25A     -0.504463    26A     -0.498400    27A     -0.479947
      28A     -0.464365    29A     -0.456236    30A     -0.443044
      31A     -0.431030    32A     -0.418694    33A     -0.410878
      34A     -0.359737    35A     -0.337573    36A     -0.263403

  @DF-RKS Final Energy:  -421.63239824222489

   => Energetics <=

    Nuclear Repulsion Energy =            480.9168567374857730
    One-Electron Energy =               -1524.6896904310365244
    Two-Electron Energy =                 663.4661344584480958
    DFT Exchange-Correlation Energy =     -41.3111089312929138
    Empirical Dispersion Energy =          -0.0145900758294742
    VV10 Nonlocal Energy =                  0.0000000000000000
    Total Energy =                       -421.6323982422248946

  Dipole Moment: [D]
     X:    -2.2230      Y:     0.6832      Z:     3.0617     Total:     3.8448

    Molecular point group: c1
  Basis Set: 6-311G
    Blend: 6-311G
  Basis Set: (6-311G AUX)
    Blend: CC-PVTZ-JKFIT

  -Total Gradient:
     Atom            X                  Y                   Z
    ------   -----------------  -----------------  -----------------
       1       -0.000646160781     0.001127944205     0.000317425561
       2        0.005106726409    -0.004650001416    -0.000000434391
       3       -0.003754147658     0.002444464548     0.001221284604
       4        0.001172244200     0.004091923880    -0.000032322607
       5       -0.001734817175     0.000345496014    -0.000334480444
       6       -0.000009369794    -0.000658827169    -0.000225475569
       7       -0.000593345834     0.000860026501    -0.000630049325
       8       -0.000649523092    -0.006464512709     0.002727985373
       9        0.000286085435    -0.000420719527    -0.001342304874
      10       -0.000036175741     0.000362459842     0.000865585572
      11        0.000362066498     0.000426472866    -0.000210177664
      12       -0.000242774058    -0.000541601832    -0.000060238691
      13        0.001261561060    -0.000532266192    -0.000946618171
      14       -0.000756692456    -0.000726278024     0.000699641692
      15        0.000748753587    -0.000361843352     0.000196616740
      16        0.000368268176     0.000964790835    -0.000246563865
      17       -0.000045559199     0.000065678264     0.000190089035
      18       -0.000206752568    -0.000450829619    -0.000339212271
      19        0.000737496280     0.000538621254    -0.000524987492
      20       -0.000999917025     0.003200454050    -0.001629230056
      21        0.000626244548     0.000133889469     0.000360879589
      22       -0.000489618285    -0.000539823008    -0.000319508483
      23       -0.000686551372     0.000686833821     0.000415965263

  **** Optimization is complete! (in 1 steps) ****
    Final optimized geometry and variables:
    Molecular point group: c1

    Geometry (in Angstrom), charge = 0, multiplicity = 1:

    C            1.246532551679     0.161042903505    -1.010589976739
    N            0.540483860043     0.342809171140     0.253242468694
    C           -0.833856092944    -0.017313512181     0.533042200544
    C           -1.792091807319    -0.294190167308    -0.619225333133
    C            1.195897985289     1.131732296480     1.280978386815
    H           -1.286931252073     0.790036495459     1.127275883468
    H           -0.907554569421    -0.914418157990     1.167557478859
    N           -3.083214124224    -0.493432070544    -0.200558476809
    O           -1.491433027540    -0.439526057535    -1.814693097083
    C            2.552781697995    -0.623054530140    -0.858355745532
    H            0.589624263985    -0.344610567186    -1.708088943959
    H            1.469918349472     1.141726324458    -1.455622447836
    C            1.779689200526     0.306182044122     2.433696278071
    H            1.996707070044     1.704972671705     0.808467043742
    H            0.492699142843     1.869675245073     1.691770251943
    H            2.357315956753    -1.606113933827    -0.429744567191
    H            3.029333172728    -0.757612930069    -1.832248513448
    H            2.248188629616     0.950558272447     3.181005394100
    H            0.997725941204    -0.270270130636     2.930325535878
    H           -3.418419046860    -0.168787812319     0.686990078949
    H           -3.759268005566    -0.735644736503    -0.901761399204
    H            3.264010110329    -0.107659486047    -0.210486428186
    H            2.525480655794    -0.394331923907     2.062436614959

*** Psi4 exiting successfully. Buy a developer a beer!
