                               Psi4 1.5 release

  ==> Input File <==

--------------------------------------------------------------------------
molecule {
0 1
 C    1.601314   -0.253530   -1.415208
 N    0.665858   -0.186404   -0.257820
 C   -0.759875   -0.451843   -0.667269
 C   -2.026523    0.347320   -0.200714
 C    0.875149    0.966779    0.659623
 H   -0.957462   -1.508943   -0.413313
 H   -0.825435   -0.445393   -1.770523
 N   -3.197533   -0.219744   -0.644475
 O   -2.040041    1.395811    0.446881
 C    3.069254   -0.459650   -0.991456
 H    1.301147   -1.098048   -2.058746
 H    1.484578    0.659605   -2.023943
 C    1.546772    0.514424    1.966423
 H    1.477794    1.741934    0.158679
 H   -0.063764    1.476292    0.892960
 H    3.168740   -1.336357   -0.349320
 H    3.702707   -0.612221   -1.866730
 H    1.705799    1.365226    2.630866
 H    0.922784   -0.208665    2.494318
 H   -3.214684   -1.187063   -0.919001
 H   -4.057640    0.207086   -0.342802
 H    3.456740    0.406980   -0.454612
 H    2.515731    0.051715    1.777853
}
set optking {
  frozen_dihedral = ("
    1 2 3 4
    10 1 2 5
    13 5 2 1
    2 3 4 8
    3 4 8 20
  ")
}
set {
  geom_maxiter 400
  g_convergence GAU_LOOSE
  dynamic_level 1
}
memory 8.166666666666666GB
set_num_threads(2)
psi4_io.set_default_path("/scratch/bdw2292/Psi4-4_27_Index_0-farH_in17")
for _ in range(1):
  try:
    set opt_coordinates both
    optimize('wb97x-d/6-311G')
    break
  except OptimizationConvergenceError:
    break
  else:
    try:
      set opt_coordinates cartesian
      optimize('wb97x-d/6-311G')
      break
    except OptimizationConvergenceError:
      pass
clean()
--------------------------------------------------------------------------

    Molecular point group: c1
  Charge       = 0
  Multiplicity = 1
  Basis Set: 6-311G
    Blend: 6-311G
  Basis Set: (6-311G AUX)
    Blend: CC-PVTZ-JKFIT
  @DF-RKS Final Energy:  -421.62253212338788
    Total Energy =                       -421.6225321233878844
    Molecular point group: c1
  Basis Set: 6-311G
    Blend: 6-311G
  Basis Set: (6-311G AUX)
    Blend: CC-PVTZ-JKFIT
  Basis Set: 6-311G
    Blend: 6-311G
  Basis Set: (6-311G AUX)
    Blend: CC-PVTZ-JKFIT
  @DF-RKS Final Energy:  -421.62738220150038
    Total Energy =                       -421.6273822015004384
  Basis Set: 6-311G
    Blend: 6-311G
  Basis Set: (6-311G AUX)
    Blend: CC-PVTZ-JKFIT
  Basis Set: 6-311G
    Blend: 6-311G
  @DF-RKS Final Energy:  -421.62466405012322
    Total Energy =                       -421.6246640501232150
  @DF-RKS Final Energy:  -421.62941537714039
    Total Energy =                       -421.6294153771403899
  @DF-RKS Final Energy:  -421.60848356931740
    Total Energy =                       -421.6084835693174000
  @DF-RKS Final Energy:  -421.62941538271332
    Total Energy =                       -421.6294153827133755
  @DF-RKS Final Energy:  -421.63008101625564
    Total Energy =                       -421.6300810162557013
  @DF-RKS Final Energy:  -421.63071878249582
    Total Energy =                       -421.6307187824958191
  @DF-RKS Final Energy:  -421.63144079726084
    Total Energy =                       -421.6314407972608933
  @DF-RKS Final Energy:  -421.63215796797328
    Total Energy =                       -421.6321579679732849
  @DF-RKS Final Energy:  -421.63195546579516
    Total Energy =                       -421.6319554657952153
  @DF-RKS Final Energy:  -421.63223666554160
    Total Energy =                       -421.6322366655415976
  @DF-RKS Final Energy:  -421.63310369958560
    Total Energy =                       -421.6331036995856607
  @DF-RKS Final Energy:  -421.63392828493255
    Total Energy =                       -421.6339282849324945
  @DF-RKS Final Energy:  -421.61461865347741
    Total Energy =                       -421.6146186534774642
  @DF-RKS Final Energy:  -421.62926403888758
    Total Energy =                       -421.6292640388875839
  @DF-RKS Final Energy:  -421.63392828546785
    Total Energy =                       -421.6339282854679027
  @DF-RKS Final Energy:  -421.63407540874994
    Total Energy =                       -421.6340754087499363
  @DF-RKS Final Energy:  -421.63428405376601
    Total Energy =                       -421.6342840537660095
  @DF-RKS Final Energy:  -421.63448498900567
    Total Energy =                       -421.6344849890057276
  @DF-RKS Final Energy:  -421.63867508308351
    Total Energy =                       -421.6386750830835126
  @DF-RKS Final Energy:  -421.63885010982511
    Total Energy =                       -421.6388501098251709
  @DF-RKS Final Energy:  -421.63901691268779
    Total Energy =                       -421.6390169126878504
  @DF-RKS Final Energy:  -421.63917466040562
    Total Energy =                       -421.6391746604056152
  @DF-RKS Final Energy:  -421.63932266295507
    Total Energy =                       -421.6393226629550668
  @DF-RKS Final Energy:  -421.63946030189493
    Total Energy =                       -421.6394603018949283
  @DF-RKS Final Energy:  -421.63958698982754
    Total Energy =                       -421.6395869898274782
  @DF-RKS Final Energy:  -421.63970205366297
    Total Energy =                       -421.6397020536630293
  @DF-RKS Final Energy:  -421.63980513122885
    Total Energy =                       -421.6398051312288544
  @DF-RKS Final Energy:  -421.63989546310063
    Total Energy =                       -421.6398954631005722
  @DF-RKS Final Energy:  -421.63997259313726
    Total Energy =                       -421.6399725931372586
  @DF-RKS Final Energy:  -421.64003743761225
    Total Energy =                       -421.6400374376123068
  @DF-RKS Final Energy:  -421.64009100841582
    Total Energy =                       -421.6400910084158227
  @DF-RKS Final Energy:  -421.64013428534668
    Total Energy =                       -421.6401342853466190
  @DF-RKS Final Energy:  -421.64016807833912
    Total Energy =                       -421.6401680783391726
  @DF-RKS Final Energy:  -421.64019267113366
    Total Energy =                       -421.6401926711336614
  @DF-RKS Final Energy:  -421.64020753919232
    Total Energy =                       -421.6402075391923177
  @DF-RKS Final Energy:  -421.64021341774190
    Total Energy =                       -421.6402134177419043
  Basis Set: (6-311G AUX)
    Blend: CC-PVTZ-JKFIT
  Basis Set: 6-311G
    Blend: 6-311G
  Basis Set: (6-311G AUX)
    Blend: CC-PVTZ-JKFIT
  @DF-RKS Final Energy:  -421.64021556418680
    Total Energy =                       -421.6402155641868603
  Basis Set: 6-311G
    Blend: 6-311G
  Basis Set: (6-311G AUX)
    Blend: CC-PVTZ-JKFIT
  Charge       = 0
  Multiplicity = 1
  Basis Set: 6-311G
    Blend: 6-311G
  Basis Set: (6-311G AUX)
    Blend: CC-PVTZ-JKFIT

    Orbital Energies [Eh]
    ---------------------

    Doubly Occupied:

       1A    -19.211198     2A    -14.454148     3A    -14.411958
       4A    -10.398223     5A    -10.325663     6A    -10.308006
       7A    -10.297870     8A    -10.268154     9A    -10.266656
      10A     -1.148034    11A     -1.022096    12A     -1.012893
      13A     -0.862651    14A     -0.855420    15A     -0.795638
      16A     -0.727055    17A     -0.703552    18A     -0.660586
      19A     -0.626383    20A     -0.587180    21A     -0.571897
      22A     -0.565125    23A     -0.524278    24A     -0.512290
      25A     -0.507167    26A     -0.491286    27A     -0.482155
      28A     -0.470562    29A     -0.451544    30A     -0.449743
      31A     -0.434787    32A     -0.422274    33A     -0.415222
      34A     -0.351922    35A     -0.333760    36A     -0.265991

  @DF-RKS Final Energy:  -421.64021768657460

   => Energetics <=

    Nuclear Repulsion Energy =            485.2161209655577636
    One-Electron Energy =               -1533.3348377859747416
    Two-Electron Energy =                 667.8031878536293107
    DFT Exchange-Correlation Energy =     -41.3094225230501948
    Empirical Dispersion Energy =          -0.0152661967368294
    VV10 Nonlocal Energy =                  0.0000000000000000
    Total Energy =                       -421.6402176865746583

  Dipole Moment: [D]
     X:     0.9323      Y:    -3.5552      Z:     1.3289     Total:     3.9083

    Molecular point group: c1
  Basis Set: 6-311G
    Blend: 6-311G
  Basis Set: (6-311G AUX)
    Blend: CC-PVTZ-JKFIT

  -Total Gradient:
     Atom            X                  Y                   Z
    ------   -----------------  -----------------  -----------------
       1       -0.000916070096    -0.002573981784    -0.000835257237
       2       -0.000999922934     0.001371861480    -0.000999101033
       3       -0.000213348141    -0.000422658425    -0.001551314291
       4        0.000153190596     0.001583205601     0.005655217755
       5        0.002998510814    -0.000649918311     0.000419233685
       6        0.000005364522     0.000020841033    -0.000058035295
       7        0.000016714184     0.000097216788     0.000016755012
       8        0.000778557159    -0.002604174096    -0.006746955702
       9       -0.000019563846    -0.000241739145     0.000025057994
      10        0.000420899383     0.002014741012     0.000344463279
      11       -0.000009380305     0.000036136336     0.000077106476
      12        0.000012766500    -0.000064296994     0.000008357258
      13       -0.001635935712    -0.000173745292     0.000355955650
      14       -0.000051279176     0.000012788877     0.000041068055
      15        0.000018254737    -0.000017806790     0.000042044107
      16        0.000016920410     0.000034341045    -0.000074350661
      17       -0.000020519095     0.000018375378    -0.000026623547
      18       -0.000102226364     0.000004751134     0.000043671801
      19        0.000082020696     0.000000325061    -0.000010316738
      20       -0.000678209127     0.001639713538     0.003421416404
      21        0.000006352209    -0.000059267998     0.000006770377
      22       -0.000044511003    -0.000078420500    -0.000049936935
      23       -0.000018955014     0.000139268103     0.000099530117

  **** Optimization is complete! (in 42 steps) ****
    Final optimized geometry and variables:
    Molecular point group: c1

    Geometry (in Angstrom), charge = 0, multiplicity = 1:

    C            1.668867470544     0.178794430405    -1.338682510447
    N            0.586022146933     0.275933584063    -0.372317419196
    C           -0.297242864051    -0.836396501045    -0.184740560369
    C           -1.773837541262    -0.447708306453    -0.096723414120
    C            0.683014557707     1.272590852584     0.689881716987
    H           -0.054816064623    -1.457044779330     0.697899734592
    H           -0.210443781940    -1.500777846305    -1.048071329382
    N           -2.606474666332    -1.490604010583     0.212511745658
    O           -2.212180899389     0.679676589966    -0.357402890772
    C            3.024534904744    -0.246081469328    -0.755475352870
    H            1.364060291992    -0.523040609306    -2.118172474857
    H            1.784967279067     1.150086323501    -1.832350964706
    C            1.024344301239     0.713869217376     2.078218507279
    H            1.445423596813     1.993903262923     0.388770295720
    H           -0.261190567421     1.819885951806     0.745603303265
    H            2.950849809418    -1.224614580388    -0.275271718545
    H            3.783967163781    -0.304506583065    -1.538992488587
    H            1.103862477597     1.527857608881     2.801946284841
    H            0.247492691680     0.035471752030     2.438190991249
    H           -2.271388734901    -2.324567612713     0.657655236239
    H           -3.593220986578    -1.305584765260     0.243541829115
    H            3.368283925269     0.471349376468    -0.007876593577
    H            1.971176230775     0.170029615167     2.066594224894

*** Psi4 exiting successfully. Buy a developer a beer!
