                               Psi4 1.5 release

  ==> Input File <==

--------------------------------------------------------------------------
molecule {
0 1
 C    1.416619   -0.532613   -1.220915
 N    0.543899    0.141355   -0.219529
 C   -0.849264    0.278206   -0.717797
 C   -1.795261   -0.752987   -0.063264
 C    1.087409    1.423837    0.326416
 H   -0.901576    0.174138   -1.816063
 H   -1.274157    1.276264   -0.518004
 N   -3.062331   -0.749894   -0.588819
 O   -1.476729   -1.492976    0.866747
 C    2.765021   -0.992970   -0.631831
 H    0.878839   -1.420755   -1.595669
 H    1.567712    0.134644   -2.087332
 C    1.615772    1.237510    1.759047
 H    1.879109    1.810197   -0.336926
 H    0.317762    2.212386    0.327615
 H    2.609272   -1.609842    0.255395
 H    3.317908   -1.589156   -1.359737
 H    1.988891    2.180898    2.160772
 H    0.824577    0.878258    2.419951
 H   -3.224823   -0.367071   -1.504494
 H   -3.702205   -1.443151   -0.238416
 H    3.393761   -0.145266   -0.357634
 H    2.431202    0.514296    1.792155
}
set optking {
  frozen_dihedral = ("
    1 2 3 4
    10 1 2 5
    13 5 2 1
    2 3 4 8
    3 4 8 20
  ")
}
set {
  geom_maxiter 400
  g_convergence GAU_LOOSE
  dynamic_level 1
}
memory 8.166666666666666GB
set_num_threads(2)
psi4_io.set_default_path("/scratch/bdw2292/Psi4-4_27_Index_0-farH_in17")
for _ in range(1):
  try:
    set opt_coordinates both
    optimize('wb97x-d/6-311G')
    break
  except OptimizationConvergenceError:
    break
  else:
    try:
      set opt_coordinates cartesian
      optimize('wb97x-d/6-311G')
      break
    except OptimizationConvergenceError:
      pass
clean()
--------------------------------------------------------------------------

    Molecular point group: c1
  Charge       = 0
  Multiplicity = 1
  Basis Set: 6-311G
    Blend: 6-311G
  Basis Set: (6-311G AUX)
    Blend: CC-PVTZ-JKFIT
  @DF-RKS Final Energy:  -421.63260077816579
    Total Energy =                       -421.6326007781658518
    Molecular point group: c1
  Basis Set: 6-311G
    Blend: 6-311G
  Basis Set: (6-311G AUX)
    Blend: CC-PVTZ-JKFIT
  Basis Set: 6-311G
    Blend: 6-311G
  Basis Set: (6-311G AUX)
    Blend: CC-PVTZ-JKFIT
  @DF-RKS Final Energy:  -421.62233252483719
    Total Energy =                       -421.6223325248371339
  Basis Set: 6-311G
    Blend: 6-311G
  Basis Set: (6-311G AUX)
    Blend: CC-PVTZ-JKFIT
  Basis Set: 6-311G
    Blend: 6-311G
  @DF-RKS Final Energy:  -421.63681410218993
    Total Energy =                       -421.6368141021898737
  @DF-RKS Final Energy:  -421.42573439379481
    Total Energy =                       -421.4257343937948690
  @DF-RKS Final Energy:  -421.55139486310503
    Total Energy =                       -421.5513948631050312
  @DF-RKS Final Energy:  -421.62863093943366
    Total Energy =                       -421.6286309394336058
  @DF-RKS Final Energy:  -421.63719580173029
    Total Energy =                       -421.6371958017302859
  @DF-RKS Final Energy:  -421.63629233658094
    Total Energy =                       -421.6362923365809365
  @DF-RKS Final Energy:  -421.63719580483405
    Total Energy =                       -421.6371958048340503
  @DF-RKS Final Energy:  -421.63949424621603
    Total Energy =                       -421.6394942462160316
  @DF-RKS Final Energy:  -421.64024521300587
    Total Energy =                       -421.6402452130058123
  @DF-RKS Final Energy:  -421.64071442202362
    Total Energy =                       -421.6407144220235637
  @DF-RKS Final Energy:  -421.64104841144427
    Total Energy =                       -421.6410484114442738
  @DF-RKS Final Energy:  -421.64125984641743
    Total Energy =                       -421.6412598464173698
  @DF-RKS Final Energy:  -421.64129833764696
    Total Energy =                       -421.6412983376469583
  Basis Set: (6-311G AUX)
    Blend: CC-PVTZ-JKFIT
  Basis Set: 6-311G
    Blend: 6-311G
  Basis Set: (6-311G AUX)
    Blend: CC-PVTZ-JKFIT
  @DF-RKS Final Energy:  -421.64129217077942
    Total Energy =                       -421.6412921707794226
  Basis Set: 6-311G
    Blend: 6-311G
  Basis Set: (6-311G AUX)
    Blend: CC-PVTZ-JKFIT
  Charge       = 0
  Multiplicity = 1
  Basis Set: 6-311G
    Blend: 6-311G
  Basis Set: (6-311G AUX)
    Blend: CC-PVTZ-JKFIT

    Orbital Energies [Eh]
    ---------------------

    Doubly Occupied:

       1A    -19.212101     2A    -14.455314     3A    -14.413182
       4A    -10.396406     5A    -10.328313     6A    -10.308073
       7A    -10.302614     8A    -10.260639     9A    -10.246959
      10A     -1.147857    11A     -1.023011    12A     -1.013504
      13A     -0.861141    14A     -0.853208    15A     -0.787753
      16A     -0.720920    17A     -0.699357    18A     -0.658918
      19A     -0.634072    20A     -0.579326    21A     -0.571220
      22A     -0.569586    23A     -0.527308    24A     -0.512754
      25A     -0.496135    26A     -0.486870    27A     -0.474133
      28A     -0.468120    29A     -0.455846    30A     -0.436365
      31A     -0.425570    32A     -0.418674    33A     -0.407087
      34A     -0.352518    35A     -0.335158    36A     -0.267880

  @DF-RKS Final Energy:  -421.64131023927331

   => Energetics <=

    Nuclear Repulsion Energy =            487.4295911208070606
    One-Electron Energy =               -1537.9375161553411999
    Two-Electron Energy =                 670.1877768543614593
    DFT Exchange-Correlation Energy =     -41.3059391597958196
    Empirical Dispersion Energy =          -0.0152228993048911
    VV10 Nonlocal Energy =                  0.0000000000000000
    Total Energy =                       -421.6413102392733094

  Dipole Moment: [D]
     X:    -3.3922      Y:     1.0328      Z:    -1.9718     Total:     4.0573

    Molecular point group: c1
  Basis Set: 6-311G
    Blend: 6-311G
  Basis Set: (6-311G AUX)
    Blend: CC-PVTZ-JKFIT

  -Total Gradient:
     Atom            X                  Y                   Z
    ------   -----------------  -----------------  -----------------
       1       -0.001257814849     0.000791798110    -0.000587077003
       2        0.000379812178    -0.001465838405     0.001278145583
       3       -0.000276348759     0.001015710071    -0.000418573626
       4        0.000029272099    -0.002070263524    -0.001933050551
       5        0.000906938983    -0.000556772496     0.000095733516
       6       -0.000061433460    -0.000003210417    -0.000016503857
       7       -0.000070534806     0.000012763644     0.000003764340
       8       -0.000703119931     0.005301833654     0.003608294812
       9        0.000235009965    -0.000238438034     0.000063814077
      10        0.000489973453     0.000695030405    -0.000082269368
      11        0.000000085193    -0.000010685253    -0.000033450656
      12        0.000025483275    -0.000005673711     0.000002563881
      13       -0.000362547246     0.000066833686     0.000274601493
      14        0.000002695765    -0.000028626440    -0.000016219005
      15       -0.000004852058    -0.000045226355    -0.000017533052
      16       -0.000048871455     0.000043149396    -0.000020569481
      17       -0.000010988542     0.000025777480    -0.000043206063
      18        0.000043006710    -0.000022918351     0.000012739969
      19       -0.000075184776    -0.000082736193     0.000006570083
      20        0.000563710955    -0.003406736034    -0.002130959243
      21       -0.000043168792    -0.000019710117     0.000028073989
      22        0.000019801369     0.000032826075    -0.000024890490
      23        0.000092443548    -0.000030519607    -0.000030072400

  **** Optimization is complete! (in 8 steps) ****
    Final optimized geometry and variables:
    Molecular point group: c1

    Geometry (in Angstrom), charge = 0, multiplicity = 1:

    C            0.752722578453     0.329606542799    -1.887433489162
    N            0.210542455752     0.676121749211    -0.583021404034
    C           -1.150275424413     0.377651516611    -0.264197612135
    C           -1.367919234737    -0.829117796073     0.657691573231
    C            0.951870559207     1.611110712125     0.251354397134
    H           -1.728366948954     0.213584748572    -1.182380976142
    H           -1.622012149091     1.234028883382     0.239971562471
    N           -2.682662107609    -1.166476841068     0.838174886764
    O           -0.457812905905    -1.415931443822     1.257939908877
    C            2.091093230129    -0.408840167733    -1.810275301678
    H            0.026176486833    -0.308358158556    -2.395104351758
    H            0.876460601697     1.231215599635    -2.510516366214
    C            1.702335165209     0.980400580363     1.427850305388
    H            1.660505659592     2.145488693462    -0.391579217682
    H            0.256825502267     2.370905676776     0.636182154544
    H            1.986786887996    -1.297356041379    -1.187287846240
    H            2.428148640819    -0.704804997109    -2.806700551221
    H            2.210173763054     1.752119925049     2.013643266367
    H            1.016642556982     0.432626057392     2.071478800791
    H           -3.396995368584    -0.885767446805     0.192004553886
    H           -2.888814717447    -1.927810508028     1.460489979272
    H            2.863886575563     0.225031001365    -1.371117170662
    H            2.444613804948     0.266393349618     1.070022277814

*** Psi4 exiting successfully. Buy a developer a beer!
