                               Psi4 1.5 release

  ==> Input File <==

--------------------------------------------------------------------------
molecule {
0 1
 C    1.584420   -0.519666   -1.330945
 N    0.568633    0.122950   -0.499948
 C   -0.807319   -0.041748   -0.896329
 C   -1.760080   -0.394500    0.244608
 C    0.931768    1.421058    0.080321
 H   -0.871861   -0.837391   -1.644465
 H   -1.219793    0.863187   -1.376027
 N   -3.036777   -0.677534   -0.163519
 O   -1.463432   -0.342710    1.444852
 C    2.841267   -0.888735   -0.545958
 H    1.151684   -1.434203   -1.741509
 H    1.867102    0.117502   -2.189009
 C    1.257501    1.365544    1.572696
 H    1.783772    1.833479   -0.477373
 H    0.099338    2.117682   -0.074231
 H    2.576362   -1.513697    0.307038
 H    3.542031   -1.432499   -1.183338
 H    1.470369    2.367737    1.955951
 H    0.412478    0.940000    2.109144
 H   -3.248293   -0.952636   -1.104649
 H   -3.719105   -0.873936    0.547029
 H    3.353127   -0.000729   -0.171681
 H    2.128217    0.734501    1.756417
}
memory 8.166666666666666GB
set_num_threads(2)
psi4_io.set_default_path("/scratch/bdw2292/Psi4-4_27_Index_0-farH_in17")
set freeze_core True
E, wfn = energy('wb97x-d/6-311+G*',return_wfn=True)
oeprop(wfn,"WIBERG_LOWDIN_INDICES")
clean()
--------------------------------------------------------------------------

    Molecular point group: c1

    Geometry (in Angstrom), charge = 0, multiplicity = 1:

       Center              X                  Y                   Z               Mass
    ------------   -----------------  -----------------  -----------------  -----------------
         C            1.584419917013    -0.519666226582    -1.330945010149    12.000000000000
         N            0.568632917013     0.122949773418    -0.499948010149    14.003074004430
         C           -0.807319082987    -0.041748226582    -0.896329010149    12.000000000000
         C           -1.760080082987    -0.394500226582     0.244607989851    12.000000000000
         C            0.931767917013     1.421057773418     0.080320989851    12.000000000000
         H           -0.871861082987    -0.837391226582    -1.644465010149     1.007825032230
         H           -1.219793082987     0.863186773418    -1.376027010149     1.007825032230
         N           -3.036777082987    -0.677534226582    -0.163519010149    14.003074004430
         O           -1.463432082987    -0.342710226582     1.444851989851    15.994914619570
         C            2.841266917013    -0.888735226582    -0.545958010149    12.000000000000
         H            1.151683917013    -1.434203226582    -1.741509010149     1.007825032230
         H            1.867101917013     0.117501773418    -2.189009010149     1.007825032230
         C            1.257500917013     1.365543773418     1.572695989851    12.000000000000
         H            1.783771917013     1.833478773418    -0.477373010149     1.007825032230
         H            0.099337917013     2.117681773418    -0.074231010149     1.007825032230
         H            2.576361917013    -1.513697226582     0.307037989851     1.007825032230
         H            3.542030917013    -1.432499226582    -1.183338010149     1.007825032230
         H            1.470368917013     2.367736773418     1.955950989851     1.007825032230
         H            0.412477917013     0.939999773418     2.109143989851     1.007825032230
         H           -3.248293082987    -0.952636226582    -1.104649010149     1.007825032230
         H           -3.719105082987    -0.873936226582     0.547028989851     1.007825032230
         H            3.353126917013    -0.000729226582    -0.171681010149     1.007825032230
         H            2.128216917013     0.734500773418     1.756416989851     1.007825032230

  Charge       = 0
  Multiplicity = 1
  Basis Set: 6-311+G*
    Blend: 6-311+G*
  Basis Set: (6-311+G* AUX)
    Blend: HEAVY-AUG-CC-PVTZ-JKFIT

    Orbital Energies [Eh]
    ---------------------

    Doubly Occupied:

       1A    -19.213414     2A    -14.458300     3A    -14.418327
       4A    -10.393152     5A    -10.325343     6A    -10.308201
       7A    -10.299374     8A    -10.265688     9A    -10.245589
      10A     -1.133765    11A     -1.021762    12A     -1.012126
      13A     -0.860630    14A     -0.849906    15A     -0.787388
      16A     -0.718463    17A     -0.695008    18A     -0.659193
      19A     -0.634848    20A     -0.581685    21A     -0.568905
      22A     -0.564032    23A     -0.534749    24A     -0.519772
      25A     -0.497149    26A     -0.489247    27A     -0.471385
      28A     -0.466791    29A     -0.457792    30A     -0.434549
      31A     -0.429639    32A     -0.420478    33A     -0.405760
      34A     -0.360233    35A     -0.341201    36A     -0.282877

  @DF-RKS Final Energy:  -421.76744507733702

   => Energetics <=

    Nuclear Repulsion Energy =            484.9746057651804563
    One-Electron Energy =               -1533.2373578996785000
    Two-Electron Energy =                 667.8200838704210582
    DFT Exchange-Correlation Energy =     -41.3098328888918189
    Empirical Dispersion Energy =          -0.0149439243681768
    VV10 Nonlocal Energy =                  0.0000000000000000
    Total Energy =                       -421.7674450773369585

  Dipole Moment: [D]
     X:    -1.5780      Y:    -0.5940      Z:    -3.7637     Total:     4.1241

*** Psi4 exiting successfully. Buy a developer a beer!
