                               Psi4 1.5 release

  ==> Input File <==

--------------------------------------------------------------------------
molecule {
0 1
 C    1.668867    0.178794   -1.338683
 N    0.586022    0.275934   -0.372317
 C   -0.297243   -0.836397   -0.184741
 C   -1.773838   -0.447708   -0.096723
 C    0.683015    1.272591    0.689882
 H   -0.054816   -1.457045    0.697900
 H   -0.210444   -1.500778   -1.048071
 N   -2.606475   -1.490604    0.212512
 O   -2.212181    0.679677   -0.357403
 C    3.024535   -0.246081   -0.755475
 H    1.364060   -0.523041   -2.118172
 H    1.784967    1.150086   -1.832351
 C    1.024344    0.713869    2.078219
 H    1.445424    1.993903    0.388770
 H   -0.261191    1.819886    0.745603
 H    2.950850   -1.224615   -0.275272
 H    3.783967   -0.304507   -1.538992
 H    1.103862    1.527858    2.801946
 H    0.247493    0.035472    2.438191
 H   -2.271389   -2.324568    0.657655
 H   -3.593221   -1.305585    0.243542
 H    3.368284    0.471349   -0.007877
 H    1.971176    0.170030    2.066594
}
memory 8.166666666666666GB
set_num_threads(2)
psi4_io.set_default_path("/scratch/bdw2292/Psi4-4_27_Index_0-farH_in17")
set freeze_core True
E, wfn = energy('wb97x-d/6-311+G*',return_wfn=True)
oeprop(wfn,"WIBERG_LOWDIN_INDICES")
clean()
--------------------------------------------------------------------------

    Molecular point group: c1

    Geometry (in Angstrom), charge = 0, multiplicity = 1:

       Center              X                  Y                   Z               Mass
    ------------   -----------------  -----------------  -----------------  -----------------
         C            1.668867150853     0.178793940684    -1.338683113090    12.000000000000
         N            0.586022150853     0.275933940684    -0.372317113090    14.003074004430
         C           -0.297242849147    -0.836397059316    -0.184741113090    12.000000000000
         C           -1.773837849147    -0.447708059316    -0.096723113090    12.000000000000
         C            0.683015150853     1.272590940684     0.689881886910    12.000000000000
         H           -0.054815849147    -1.457045059316     0.697899886910     1.007825032230
         H           -0.210443849147    -1.500778059316    -1.048071113090     1.007825032230
         N           -2.606474849147    -1.490604059316     0.212511886910    14.003074004430
         O           -2.212180849147     0.679676940684    -0.357403113090    15.994914619570
         C            3.024535150853    -0.246081059316    -0.755475113090    12.000000000000
         H            1.364060150853    -0.523041059316    -2.118172113090     1.007825032230
         H            1.784967150853     1.150085940684    -1.832351113090     1.007825032230
         C            1.024344150853     0.713868940684     2.078218886910    12.000000000000
         H            1.445424150853     1.993902940684     0.388769886910     1.007825032230
         H           -0.261190849147     1.819885940684     0.745602886910     1.007825032230
         H            2.950850150853    -1.224615059316    -0.275272113090     1.007825032230
         H            3.783967150853    -0.304507059316    -1.538992113090     1.007825032230
         H            1.103862150853     1.527857940684     2.801945886910     1.007825032230
         H            0.247493150853     0.035471940684     2.438190886910     1.007825032230
         H           -2.271388849147    -2.324568059316     0.657654886910     1.007825032230
         H           -3.593220849147    -1.305585059316     0.243541886910     1.007825032230
         H            3.368284150853     0.471348940684    -0.007877113090     1.007825032230
         H            1.971176150853     0.170029940684     2.066593886910     1.007825032230

  Charge       = 0
  Multiplicity = 1
  Basis Set: 6-311+G*
    Blend: 6-311+G*
  Basis Set: (6-311+G* AUX)
    Blend: HEAVY-AUG-CC-PVTZ-JKFIT

    Orbital Energies [Eh]
    ---------------------

    Doubly Occupied:

       1A    -19.212086     2A    -14.457111     3A    -14.413301
       4A    -10.391905     5A    -10.323456     6A    -10.306614
       7A    -10.297177     8A    -10.267733     9A    -10.266357
      10A     -1.132235    11A     -1.020166    12A     -1.011066
      13A     -0.859833    14A     -0.852566    15A     -0.793842
      16A     -0.724643    17A     -0.701982    18A     -0.659136
      19A     -0.626406    20A     -0.586141    21A     -0.570808
      22A     -0.563931    23A     -0.526045    24A     -0.511407
      25A     -0.506518    26A     -0.493050    27A     -0.485581
      28A     -0.470439    29A     -0.451870    30A     -0.449647
      31A     -0.435333    32A     -0.423396    33A     -0.416775
      34A     -0.359182    35A     -0.339946    36A     -0.273555

  @DF-RKS Final Energy:  -421.76675926098960

   => Energetics <=

    Nuclear Repulsion Energy =            485.2160842862187451
    One-Electron Energy =               -1533.6057077137515989
    Two-Electron Energy =                 667.9530162667007289
    DFT Exchange-Correlation Energy =     -41.3148859039727085
    Empirical Dispersion Energy =          -0.0152661961848081
    VV10 Nonlocal Energy =                  0.0000000000000000
    Total Energy =                       -421.7667592609896019

  Dipole Moment: [D]
     X:     0.9454      Y:    -3.4524      Z:     1.2336     Total:     3.7861

*** Psi4 exiting successfully. Buy a developer a beer!
