                               Psi4 1.5 release

  ==> Input File <==

--------------------------------------------------------------------------
molecule {
0 1
 C    1.603270   -0.555893   -1.298644
 N    0.636960   -0.279860   -0.222812
 C   -0.716394   -0.547135   -0.710964
 C   -1.906294   -0.060003    0.103995
 C    0.899415    1.034149    0.420804
 H   -0.818900   -1.629636   -0.835524
 H   -0.871445   -0.108784   -1.716934
 N   -3.105715   -0.486483   -0.400688
 O   -1.869670    0.695532    1.087361
 C    3.039371   -0.695050   -0.807370
 H    1.310290   -1.496724   -1.773367
 H    1.545663    0.225770   -2.078919
 C    1.541547    0.872136    1.794795
 H    1.550075    1.628668   -0.234956
 H   -0.027602    1.584202    0.537433
 H    3.093677   -1.448443   -0.021337
 H    3.689224   -0.999184   -1.630494
 H    1.758936    1.848377    2.236321
 H    0.851841    0.342197    2.451463
 H   -3.181460   -1.280032   -1.009387
 H   -3.936476   -0.175757    0.071063
 H    3.426774    0.243241   -0.409408
 H    2.468821    0.301390    1.742228
}
memory 8.166666666666666GB
set_num_threads(2)
psi4_io.set_default_path("/scratch/bdw2292/Psi4-4_27_Index_0-farH_in17")
set freeze_core True
E, wfn = energy('wb97x-d/6-311+G*',return_wfn=True)
oeprop(wfn,"WIBERG_LOWDIN_INDICES")
clean()
--------------------------------------------------------------------------

    Molecular point group: c1

    Geometry (in Angstrom), charge = 0, multiplicity = 1:

       Center              X                  Y                   Z               Mass
    ------------   -----------------  -----------------  -----------------  -----------------
         C            1.603269982205    -0.555893009895    -1.298643974267    12.000000000000
         N            0.636959982205    -0.279860009895    -0.222811974267    14.003074004430
         C           -0.716394017795    -0.547135009895    -0.710963974267    12.000000000000
         C           -1.906294017795    -0.060003009895     0.103995025733    12.000000000000
         C            0.899414982205     1.034148990105     0.420804025733    12.000000000000
         H           -0.818900017795    -1.629636009895    -0.835523974267     1.007825032230
         H           -0.871445017795    -0.108784009895    -1.716933974267     1.007825032230
         N           -3.105715017795    -0.486483009895    -0.400687974267    14.003074004430
         O           -1.869670017795     0.695531990105     1.087361025733    15.994914619570
         C            3.039370982205    -0.695050009895    -0.807369974267    12.000000000000
         H            1.310289982205    -1.496724009895    -1.773366974267     1.007825032230
         H            1.545662982205     0.225769990105    -2.078918974267     1.007825032230
         C            1.541546982205     0.872135990105     1.794795025733    12.000000000000
         H            1.550074982205     1.628667990105    -0.234955974267     1.007825032230
         H           -0.027602017795     1.584201990105     0.537433025733     1.007825032230
         H            3.093676982205    -1.448443009895    -0.021336974267     1.007825032230
         H            3.689223982205    -0.999184009895    -1.630493974267     1.007825032230
         H            1.758935982205     1.848376990105     2.236321025733     1.007825032230
         H            0.851840982205     0.342196990105     2.451463025733     1.007825032230
         H           -3.181460017795    -1.280032009895    -1.009386974267     1.007825032230
         H           -3.936476017795    -0.175757009895     0.071063025733     1.007825032230
         H            3.426773982205     0.243240990105    -0.409407974267     1.007825032230
         H            2.468820982205     0.301389990105     1.742228025733     1.007825032230

  Charge       = 0
  Multiplicity = 1
  Basis Set: 6-311+G*
    Blend: 6-311+G*
  Basis Set: (6-311+G* AUX)
    Blend: HEAVY-AUG-CC-PVTZ-JKFIT

    Orbital Energies [Eh]
    ---------------------

    Doubly Occupied:

       1A    -19.220383     2A    -14.462218     3A    -14.423448
       4A    -10.405060     5A    -10.327609     6A    -10.307334
       7A    -10.287223     8A    -10.268608     9A    -10.249793
      10A     -1.141564    11A     -1.020636    12A     -1.016310
      13A     -0.860052    14A     -0.848751    15A     -0.791613
      16A     -0.716027    17A     -0.695516    18A     -0.664886
      19A     -0.633108    20A     -0.582469    21A     -0.571342
      22A     -0.557013    23A     -0.536994    24A     -0.529203
      25A     -0.499232    26A     -0.485160    27A     -0.475377
      28A     -0.465891    29A     -0.450351    30A     -0.445126
      31A     -0.429790    32A     -0.418639    33A     -0.405694
      34A     -0.365760    35A     -0.341823    36A     -0.292009

  @DF-RKS Final Energy:  -421.76320100933742

   => Energetics <=

    Nuclear Repulsion Energy =            483.1003817529297066
    One-Electron Energy =               -1529.3527099847947284
    Two-Electron Energy =                 665.8090755118274728
    DFT Exchange-Correlation Energy =     -41.3051508391628417
    Empirical Dispersion Energy =          -0.0147974501370154
    VV10 Nonlocal Energy =                  0.0000000000000000
    Total Energy =                       -421.7632010093373651

  Dipole Moment: [D]
     X:    -1.2739      Y:    -2.0661      Z:    -3.1429     Total:     3.9711

*** Psi4 exiting successfully. Buy a developer a beer!
