                               Psi4 1.5 release

  ==> Input File <==

--------------------------------------------------------------------------
molecule {
0 1
 C    1.279349   -0.623000   -1.057659
 N    0.499061    0.170772   -0.049372
 C   -0.909217    0.329249   -0.468436
 C   -1.750636   -0.962016   -0.317164
 C    1.127145    1.486119    0.297899
 H   -0.971420    0.691827   -1.510295
 H   -1.413618    1.096794    0.144896
 N   -3.020052   -0.853831   -0.825032
 O   -1.350436   -1.991191    0.226649
 C    2.668691   -1.050919   -0.543292
 H    0.703655   -1.534474   -1.289530
 H    1.360102   -0.053519   -1.999638
 C    1.787073    1.437176    1.686039
 H    1.860311    1.771096   -0.474908
 H    0.377410    2.294519    0.278752
 H    2.583772   -1.575140    0.410322
 H    3.146767   -1.728285   -1.252675
 H    2.247544    2.395875    1.929324
 H    1.049902    1.212308    2.458812
 H   -3.227703   -0.143494   -1.505963
 H   -3.590850   -1.682428   -0.806777
 H    3.331302   -0.194927   -0.411857
 H    2.563253    0.672797    1.731576
}
set optking {
  frozen_dihedral = ("
    1 2 3 4
    10 1 2 5
    13 5 2 1
    2 3 4 8
    3 4 8 20
  ")
}
set {
  geom_maxiter 400
  g_convergence GAU_LOOSE
  dynamic_level 1
}
memory 8.166666666666666GB
set_num_threads(2)
psi4_io.set_default_path("/scratch/bdw2292/Psi4-4_27_Index_0-farH_in17")
for _ in range(1):
  try:
    set opt_coordinates both
    optimize('wb97x-d/6-311G')
    break
  except OptimizationConvergenceError:
    break
  else:
    try:
      set opt_coordinates cartesian
      optimize('wb97x-d/6-311G')
      break
    except OptimizationConvergenceError:
      pass
clean()
--------------------------------------------------------------------------

    Molecular point group: c1
  Charge       = 0
  Multiplicity = 1
  Basis Set: 6-311G
    Blend: 6-311G
  Basis Set: (6-311G AUX)
    Blend: CC-PVTZ-JKFIT
  @DF-RKS Final Energy:  -421.63587356543343
    Total Energy =                       -421.6358735654334851
    Molecular point group: c1
  Basis Set: 6-311G
    Blend: 6-311G
  Basis Set: (6-311G AUX)
    Blend: CC-PVTZ-JKFIT
  Basis Set: 6-311G
    Blend: 6-311G
  Basis Set: (6-311G AUX)
    Blend: CC-PVTZ-JKFIT
  @DF-RKS Final Energy:  -421.63927612905809
    Total Energy =                       -421.6392761290580893
  Basis Set: 6-311G
    Blend: 6-311G
  Basis Set: (6-311G AUX)
    Blend: CC-PVTZ-JKFIT
  Basis Set: 6-311G
    Blend: 6-311G
  @DF-RKS Final Energy:  -421.57847819626272
    Total Energy =                       -421.5784781962627221
  @DF-RKS Final Energy:  -421.63478871221190
    Total Energy =                       -421.6347887122119005
  @DF-RKS Final Energy:  -421.63978831760227
    Total Energy =                       -421.6397883176022674
  @DF-RKS Final Energy:  -421.64004961755882
    Total Energy =                       -421.6400496175588160
  @DF-RKS Final Energy:  -421.64033531343597
    Total Energy =                       -421.6403353134359691
  @DF-RKS Final Energy:  -421.64055335676710
    Total Energy =                       -421.6405533567670432
  @DF-RKS Final Energy:  -421.21603129112958
    Total Energy =                       -421.2160312911295250
  @DF-RKS Final Energy:  -421.64055335281193
    Total Energy =                       -421.6405533528119349
  @DF-RKS Final Energy:  -421.64065553628291
    Total Energy =                       -421.6406555362828499
  @DF-RKS Final Energy:  -421.64080782575911
    Total Energy =                       -421.6408078257591114
  @DF-RKS Final Energy:  -421.64096935968308
    Total Energy =                       -421.6409693596831403
  @DF-RKS Final Energy:  -421.64069945096452
    Total Energy =                       -421.6406994509645187
  Basis Set: (6-311G AUX)
    Blend: CC-PVTZ-JKFIT
  Basis Set: 6-311G
    Blend: 6-311G
  Basis Set: (6-311G AUX)
    Blend: CC-PVTZ-JKFIT
  @DF-RKS Final Energy:  -421.64096273438957
    Total Energy =                       -421.6409627343896318
  Basis Set: 6-311G
    Blend: 6-311G
  Basis Set: (6-311G AUX)
    Blend: CC-PVTZ-JKFIT
  Charge       = 0
  Multiplicity = 1
  Basis Set: 6-311G
    Blend: 6-311G
  Basis Set: (6-311G AUX)
    Blend: CC-PVTZ-JKFIT

    Orbital Energies [Eh]
    ---------------------

    Doubly Occupied:

       1A    -19.212324     2A    -14.455239     3A    -14.413513
       4A    -10.398799     5A    -10.327856     6A    -10.308244
       7A    -10.303260     8A    -10.259184     9A    -10.258332
      10A     -1.148046    11A     -1.021488    12A     -1.012831
      13A     -0.858281    14A     -0.856604    15A     -0.787970
      16A     -0.721705    17A     -0.696905    18A     -0.659656
      19A     -0.632763    20A     -0.577819    21A     -0.572474
      22A     -0.566795    23A     -0.528144    24A     -0.516212
      25A     -0.499863    26A     -0.485067    27A     -0.471858
      28A     -0.465773    29A     -0.456675    30A     -0.436731
      31A     -0.430443    32A     -0.418235    33A     -0.411296
      34A     -0.352496    35A     -0.333491    36A     -0.269674

  @DF-RKS Final Energy:  -421.64096935752349

   => Energetics <=

    Nuclear Repulsion Energy =            485.0054697240684050
    One-Electron Energy =               -1533.0626258784286620
    Two-Electron Energy =                 667.7213699219332739
    DFT Exchange-Correlation Energy =     -41.2901368191605371
    Empirical Dispersion Energy =          -0.0150463059360730
    VV10 Nonlocal Energy =                  0.0000000000000000
    Total Energy =                       -421.6409693575235451

  Dipole Moment: [D]
     X:    -2.4397      Y:     2.8261      Z:    -1.5989     Total:     4.0614

    Molecular point group: c1
  Basis Set: 6-311G
    Blend: 6-311G
  Basis Set: (6-311G AUX)
    Blend: CC-PVTZ-JKFIT

  -Total Gradient:
     Atom            X                  Y                   Z
    ------   -----------------  -----------------  -----------------
       1        0.001049129091    -0.001417038634    -0.001402972070
       2       -0.000296293734    -0.002992798328     0.001499254419
       3       -0.003220339572     0.002996470228    -0.000215818929
       4        0.001840279157    -0.001673447829    -0.004475426574
       5       -0.000692190426     0.002513177053     0.002342739049
       6       -0.000065243747     0.000749266273    -0.000454798646
       7       -0.000130524786    -0.000180431588     0.000471497878
       8       -0.001125272626     0.003447811547     0.006208660665
       9        0.000461063349    -0.001011846316     0.000590529746
      10        0.000846209507     0.000133592053    -0.001618255306
      11       -0.000300762123    -0.000651438396    -0.000417205633
      12       -0.000223140174     0.001178332267    -0.000661582099
      13        0.001637779978    -0.000328031465    -0.000159651552
      14        0.000951359565     0.000766327531    -0.000958779790
      15       -0.000208025226     0.000517524507     0.000177431999
      16       -0.000843432515    -0.001692001085     0.001405961083
      17       -0.000006852992    -0.000223635985    -0.000430379946
      18        0.000405586580     0.000604783782     0.000267784272
      19       -0.001241627008    -0.000416605504     0.000801467004
      20       -0.000245359713    -0.001332217264    -0.003759707784
      21       -0.000736422172    -0.000996261487     0.000158278591
      22        0.001157247960     0.000876473263     0.000747188272
      23        0.000702219109    -0.000889202279     0.000055317377

  **** Optimization is complete! (in 1 steps) ****
    Final optimized geometry and variables:
    Molecular point group: c1

    Geometry (in Angstrom), charge = 0, multiplicity = 1:

    C            1.109142622953    -0.004073257237    -1.367114385902
    N            0.468055994072     0.607723129419    -0.205019624109
    C           -0.965294434282     0.712408211576    -0.220162579060
    C           -1.668400030663    -0.630072921760     0.008132555983
    C            1.241109321713     1.567277936127     0.586179799842
    H           -1.358550444214     1.167079803040    -1.150460889486
    H           -1.283562796650     1.361556880192     0.600035797042
    N           -3.031963402244    -0.577392336969    -0.130259199079
    O           -1.087408963045    -1.663991469547     0.361831947959
    C            2.307123803167    -0.877472884502    -0.994611514894
    H            0.366600891943    -0.635865499522    -1.860027558433
    H            1.415476940681     0.767883375344    -2.098558184745
    C            1.730201009002     0.994058856083     1.920732610803
    H            2.099116201985     1.904215122323    -0.011997057502
    H            0.637541458316     2.464294411603     0.774027279669
    H            1.980626254790    -1.647389435871    -0.290630969162
    H            2.722764448815    -1.357222840172    -1.884272932643
    H            2.294078916265     1.743573156702     2.485420067571
    H            0.877851973411     0.668308385956     2.523661785768
    H           -3.484261067945     0.156430162793    -0.645692056303
    H           -3.552958213790    -1.420404628993     0.041750170534
    H            3.103396146702    -0.289832443233    -0.526928345140
    H            2.366842880688     0.123367355328     1.755512971220

*** Psi4 exiting successfully. Buy a developer a beer!
