                               Psi4 1.5 release

  ==> Input File <==

--------------------------------------------------------------------------
molecule {
0 1
 C    1.612576   -0.477012   -1.359510
 N    0.598470   -0.099139   -0.367462
 C   -0.751421   -0.224955   -0.886226
 C   -1.839122   -0.226101    0.177480
 C    0.884037    1.183620    0.313322
 H   -0.820661   -1.166867   -1.437867
 H   -1.011573    0.576990   -1.604516
 N   -3.093473   -0.474135   -0.312095
 O   -1.659598    0.057061    1.369656
 C    2.982507   -0.735217   -0.741588
 H    1.274701   -1.394673   -1.847307
 H    1.703769    0.292820   -2.148616
 C    1.384678    0.997222    1.741564
 H    1.613790    1.753992   -0.279394
 H   -0.028621    1.782193    0.340380
 H    2.897974   -1.480409    0.049449
 H    3.674546   -1.103866   -1.501520
 H    1.599248    1.964684    2.203924
 H    0.615281    0.489687    2.318724
 H   -3.243597   -0.930753   -1.192494
 H   -3.855830   -0.453592    0.341709
 H    3.411813    0.171486   -0.313372
 H    2.293696    0.395521    1.764639
}
memory 8.166666666666666GB
set_num_threads(2)
psi4_io.set_default_path("/scratch/bdw2292/Psi4-4_27_Index_0-farH_in17")
set freeze_core True
E, wfn = energy('wb97x-d/6-311+G*',return_wfn=True)
oeprop(wfn,"WIBERG_LOWDIN_INDICES")
clean()
--------------------------------------------------------------------------

    Molecular point group: c1

    Geometry (in Angstrom), charge = 0, multiplicity = 1:

       Center              X                  Y                   Z               Mass
    ------------   -----------------  -----------------  -----------------  -----------------
         C            1.612576147125    -0.477012040711    -1.359510116963    12.000000000000
         N            0.598470147125    -0.099139040711    -0.367462116963    14.003074004430
         C           -0.751420852875    -0.224955040711    -0.886226116963    12.000000000000
         C           -1.839121852875    -0.226101040711     0.177479883037    12.000000000000
         C            0.884037147125     1.183619959289     0.313321883037    12.000000000000
         H           -0.820660852875    -1.166867040711    -1.437867116963     1.007825032230
         H           -1.011572852875     0.576989959289    -1.604516116963     1.007825032230
         N           -3.093472852875    -0.474135040711    -0.312095116963    14.003074004430
         O           -1.659597852875     0.057060959289     1.369655883037    15.994914619570
         C            2.982507147125    -0.735217040711    -0.741588116963    12.000000000000
         H            1.274701147125    -1.394673040711    -1.847307116963     1.007825032230
         H            1.703769147125     0.292819959289    -2.148616116963     1.007825032230
         C            1.384678147125     0.997221959289     1.741563883037    12.000000000000
         H            1.613790147125     1.753991959289    -0.279394116963     1.007825032230
         H           -0.028620852875     1.782192959289     0.340379883037     1.007825032230
         H            2.897974147125    -1.480409040711     0.049448883037     1.007825032230
         H            3.674546147125    -1.103866040711    -1.501520116963     1.007825032230
         H            1.599248147125     1.964683959289     2.203923883037     1.007825032230
         H            0.615281147125     0.489686959289     2.318723883037     1.007825032230
         H           -3.243596852875    -0.930753040711    -1.192494116963     1.007825032230
         H           -3.855829852875    -0.453592040711     0.341708883037     1.007825032230
         H            3.411813147125     0.171485959289    -0.313372116963     1.007825032230
         H            2.293696147125     0.395520959289     1.764638883037     1.007825032230

  Charge       = 0
  Multiplicity = 1
  Basis Set: 6-311+G*
    Blend: 6-311+G*
  Basis Set: (6-311+G* AUX)
    Blend: HEAVY-AUG-CC-PVTZ-JKFIT

    Orbital Energies [Eh]
    ---------------------

    Doubly Occupied:

       1A    -19.216190     2A    -14.460222     3A    -14.422276
       4A    -10.398126     5A    -10.325193     6A    -10.307669
       7A    -10.295175     8A    -10.267808     9A    -10.246418
      10A     -1.137230    11A     -1.022110    12A     -1.014691
      13A     -0.860693    14A     -0.849043    15A     -0.788974
      16A     -0.717266    17A     -0.694053    18A     -0.661264
      19A     -0.634974    20A     -0.584195    21A     -0.569335
      22A     -0.559292    23A     -0.537254    24A     -0.525908
      25A     -0.497554    26A     -0.485155    27A     -0.473525
      28A     -0.464949    29A     -0.454075    30A     -0.438454
      31A     -0.429545    32A     -0.419464    33A     -0.404236
      34A     -0.362184    35A     -0.343456    36A     -0.291475

  @DF-RKS Final Energy:  -421.76988019264599

   => Energetics <=

    Nuclear Repulsion Energy =            485.3927247731327839
    One-Electron Energy =               -1534.0145890485212021
    Two-Electron Energy =                 668.1737275523555581
    DFT Exchange-Correlation Energy =     -41.3067233378720289
    Empirical Dispersion Energy =          -0.0150201317411333
    VV10 Nonlocal Energy =                  0.0000000000000000
    Total Energy =                       -421.7698801926459851

  Dipole Moment: [D]
     X:    -1.4200      Y:    -0.9285      Z:    -3.7413     Total:     4.1080

*** Psi4 exiting successfully. Buy a developer a beer!
