                               Psi4 1.3.2 release

  ==> Input File <==

--------------------------------------------------------------------------
molecule {
0 1
H -0.726804621093 -0.247726259602 0.772613386184
C 0.000195193365 0.000098418116 0.000004902477
H -0.328138708598 0.891315013383 -0.533708328211
H 0.082829390019 -0.831530365136 -0.699134120368
H 0.969789805713 0.186769763712 0.460170689440
}
memory 8.333333333333334GB
set_num_threads(1)
psi4_io.set_default_path("/scratch/bdw2292/Psi4-57_Index_0-farH_in17")
set freeze_core True
set PROPERTIES_ORIGIN ["COM"]
set cubeprop_tasks ['esp']
E, wfn = properties('mp2/6-311G**',properties=['dipole'],return_wfn=True)
cubeprop(wfn)
fchk(wfn, "57_Index_0-dma.fchk")
clean()
--------------------------------------------------------------------------

    Molecular point group: c1
  Charge       = 0
  Multiplicity = 1
  Basis Set: 6-311G**
    Blend: 6-311G**
  Basis Set: (6-311G** AUX)
    Blend: CC-PVTZ-JKFIT

    Orbital Energies [Eh]
    ---------------------

    Doubly Occupied:

       1A    -11.207586     2A     -0.942853     3A     -0.545009
       4A     -0.544671     5A     -0.544562

  @DF-RHF Final Energy:   -40.20893952391889

   => Energetics <=

    Nuclear Repulsion Energy =             13.4419930905753375
    One-Electron Energy =                 -79.7325021417103272
    Two-Electron Energy =                  26.0815695272160966
    Total Energy =                        -40.2089395239188931
  Basis Set: (6-311G** AUX)
    Blend: CC-PVTZ-RI
    Molecular point group: c1

    Geometry (in Angstrom), charge = 0, multiplicity = 1:

       Center              X                  Y                   Z               Mass
    ------------   -----------------  -----------------  -----------------  -----------------
         H           -0.726804621093    -0.247726259602     0.772613386184     1.007825032230
         C            0.000195193365     0.000098418116     0.000004902477    12.000000000000
         H           -0.328138708598     0.891315013383    -0.533708328211     1.007825032230
         H            0.082829390019    -0.831530365136    -0.699134120368     1.007825032230
         H            0.969789805713     0.186769763712     0.460170689440     1.007825032230

  Basis Set: 6-311G**
    Blend: 6-311G**
  Basis Set: (6-311G** AUX)
    Blend: CC-PVTZ-JKFIT
	 Reference Energy          =     -40.2089395239188931 [Eh]
	 Singles Energy            =      -0.0000000000000000 [Eh]
	 Same-Spin Energy          =      -0.0320140028107987 [Eh]
	 Opposite-Spin Energy      =      -0.1382605923168152 [Eh]
	 Correlation Energy        =      -0.1702745951276139 [Eh]
	 Total Energy              =     -40.3792141190465088 [Eh]

	 ================> DF-SCS-MP2 Energies <==================
	-----------------------------------------------------------
	 SCS Same-Spin Scale       =       0.3333333333333333 [-]
	 SCS Opposite-Spin Scale   =       1.2000000000000000 [-]
	 SCS Same-Spin Energy      =      -0.0106713342702662 [Eh]
	 SCS Opposite-Spin Energy  =      -0.1659127107801783 [Eh]
	 SCS Correlation Energy    =      -0.1765840450504445 [Eh]
	 SCS Total Energy          =     -40.3855235689693401 [Eh]
	-----------------------------------------------------------

  Dipole Moment: [D]
     X:    -0.0010      Y:    -0.0004      Z:     0.0001     Total:     0.0011

  Basis Set: 6-311G**
    Blend: 6-311G**
*** Psi4 exiting successfully. Buy a developer a beer!
