                               Psi4 1.3.2 release

  ==> Input File <==

--------------------------------------------------------------------------
molecule {
0 1
H -0.726804621093 -0.247726259602 0.772613386184
C 0.000195193365 0.000098418116 0.000004902477
H -0.328138708598 0.891315013383 -0.533708328211
H 0.082829390019 -0.831530365136 -0.699134120368
H 0.969789805713 0.186769763712 0.460170689440
}
memory 8.333333333333334GB
set_num_threads(1)
psi4_io.set_default_path("/scratch/bdw2292/Psi4-57_Index_0-farH_in17")
set maxiter 500
set freeze_core True
set PROPERTIES_ORIGIN ["COM"]
set cubeprop_tasks ['esp']
E, wfn = properties('mp2/aug-cc-pVTZ',properties=['dipole'],return_wfn=True)
cubeprop(wfn)
fchk(wfn, "57_Index_0-esp.fchk")
oeprop(wfn,"GRID_ESP","WIBERG_LOWDIN_INDICES","MULLIKEN_CHARGES")
clean()
--------------------------------------------------------------------------

    Molecular point group: c1
  Charge       = 0
  Multiplicity = 1
  Basis Set: AUG-CC-PVTZ
    Blend: AUG-CC-PVTZ
  Basis Set: (AUG-CC-PVTZ AUX)
    Blend: AUG-CC-PVTZ-JKFIT

    Orbital Energies [Eh]
    ---------------------

    Doubly Occupied:

       1A    -11.207047     2A     -0.942573     3A     -0.544901
       4A     -0.544563     5A     -0.544454

  @DF-RHF Final Energy:   -40.21355814854924

   => Energetics <=

    Nuclear Repulsion Energy =             13.4419930905753375
    One-Electron Energy =                 -79.7440250428869888
    Two-Electron Energy =                  26.0884738037624082
    Total Energy =                        -40.2135581485492395
  Basis Set: (AUG-CC-PVTZ AUX)
    Blend: AUG-CC-PVTZ-RI
    Molecular point group: c1

    Geometry (in Angstrom), charge = 0, multiplicity = 1:

       Center              X                  Y                   Z               Mass
    ------------   -----------------  -----------------  -----------------  -----------------
         H           -0.726804621093    -0.247726259602     0.772613386184     1.007825032230
         C            0.000195193365     0.000098418116     0.000004902477    12.000000000000
         H           -0.328138708598     0.891315013383    -0.533708328211     1.007825032230
         H            0.082829390019    -0.831530365136    -0.699134120368     1.007825032230
         H            0.969789805713     0.186769763712     0.460170689440     1.007825032230

  Basis Set: AUG-CC-PVTZ
    Blend: AUG-CC-PVTZ
  Basis Set: (AUG-CC-PVTZ AUX)
    Blend: AUG-CC-PVTZ-JKFIT
	 Reference Energy          =     -40.2135581485492395 [Eh]
	 Singles Energy            =      -0.0000000000000000 [Eh]
	 Same-Spin Energy          =      -0.0366263203539661 [Eh]
	 Opposite-Spin Energy      =      -0.1642106902230392 [Eh]
	 Correlation Energy        =      -0.2008370105770053 [Eh]
	 Total Energy              =     -40.4143951591262436 [Eh]

	 ================> DF-SCS-MP2 Energies <==================
	-----------------------------------------------------------
	 SCS Same-Spin Scale       =       0.3333333333333333 [-]
	 SCS Opposite-Spin Scale   =       1.2000000000000000 [-]
	 SCS Same-Spin Energy      =      -0.0122087734513220 [Eh]
	 SCS Opposite-Spin Energy  =      -0.1970528282676470 [Eh]
	 SCS Correlation Energy    =      -0.2092616017189690 [Eh]
	 SCS Total Energy          =     -40.4228197502682107 [Eh]
	-----------------------------------------------------------

  Dipole Moment: [D]
     X:    -0.0009      Y:    -0.0004      Z:     0.0001     Total:     0.0009

  Basis Set: AUG-CC-PVTZ
    Blend: AUG-CC-PVTZ

  Mulliken Charges: (a.u.)
   Center  Symbol    Alpha    Beta     Spin     Total
       1     H     0.34402  0.34402  0.00000  0.31197
       2     C     3.62446  3.62446  0.00000 -1.24892
       3     H     0.34387  0.34387  0.00000  0.31227
       4     H     0.34396  0.34396  0.00000  0.31209
       5     H     0.34370  0.34370  0.00000  0.31260

   Total alpha =  5.00000, Total beta =  5.00000, Total charge = -0.00000

*** Psi4 exiting successfully. Buy a developer a beer!
