                               Psi4 1.3.2 release

  ==> Input File <==

--------------------------------------------------------------------------
molecule {
0 1
 H   -0.742200   -0.246700    0.758900
 C    0.026400    0.011200   -0.012600
 H   -0.362500    0.908400   -0.531200
 H    0.069600   -0.859900   -0.700600
 H    1.008700    0.186900    0.485600
}
set {
  geom_maxiter 400
  g_convergence GAU
  dynamic_level 1
}
memory 8.333333333333334GB
set_num_threads(1)
psi4_io.set_default_path("/scratch/bdw2292/Psi4-57_Index_0-farH_in17")
for _ in range(1):
  try:
    set opt_coordinates both
    optimize('mp2/6-31G*')
    break
  except OptimizationConvergenceError:
    break
  else:
    try:
      set opt_coordinates cartesian
      optimize('mp2/6-31G*')
      break
    except OptimizationConvergenceError:
      pass
clean()
--------------------------------------------------------------------------

    Molecular point group: c1
  Charge       = 0
  Multiplicity = 1
  Basis Set: 6-31G*
    Blend: 6-31G*
  Basis Set: (6-31G* AUX)
    Blend: CC-PVDZ-JKFIT
  @DF-RHF Final Energy:   -40.19180718898959
    Total Energy =                        -40.1918071889895856
  Basis Set: (6-31G* AUX)
    Blend: CC-PVDZ-RI
    Molecular point group: c1
  Basis Set: 6-31G*
    Blend: 6-31G*
  Basis Set: (6-31G* AUX)
    Blend: CC-PVDZ-JKFIT
  Basis Set: (6-31G* AUX)
    Blend: CC-PVDZ-JKFIT
	 Reference Energy          =     -40.1918071889895856 [Eh]
	 Singles Energy            =      -0.0000000000000000 [Eh]
	 Same-Spin Energy          =      -0.0278925467049792 [Eh]
	 Opposite-Spin Energy      =      -0.1148662916966289 [Eh]
	 Correlation Energy        =      -0.1427588384016081 [Eh]
	 Total Energy              =     -40.3345660273911903 [Eh]
	 SCS Total Energy          =     -40.3389442545938692 [Eh]
  @DF-RHF Final Energy:   -40.19508506370182
    Total Energy =                        -40.1950850637018249
  Charge       = 0
  Multiplicity = 1
  Basis Set: 6-31G*
    Blend: 6-31G*
  Basis Set: (6-31G* AUX)
    Blend: CC-PVDZ-JKFIT

    Orbital Energies [Eh]
    ---------------------

    Doubly Occupied:

       1A    -11.207777     2A     -0.942175     3A     -0.544946
       4A     -0.544608     5A     -0.544498

  @DF-RHF Final Energy:   -40.19509363928496

   => Energetics <=

    Nuclear Repulsion Energy =             13.4419930905743463
    One-Electron Energy =                 -79.7061647427615299
    Two-Electron Energy =                  26.0690780129022279
    Total Energy =                        -40.1950936392849627

  Dipole Moment: [D]
     X:    -0.0008      Y:    -0.0003      Z:     0.0001     Total:     0.0009

  Basis Set: (6-31G* AUX)
    Blend: CC-PVDZ-RI
    Molecular point group: c1
  Basis Set: 6-31G*
    Blend: 6-31G*
  Basis Set: (6-31G* AUX)
    Blend: CC-PVDZ-JKFIT
  Basis Set: (6-31G* AUX)
    Blend: CC-PVDZ-JKFIT
	 Reference Energy          =     -40.1950936392849556 [Eh]
	 Singles Energy            =      -0.0000000000000000 [Eh]
	 Same-Spin Energy          =      -0.0279572586217656 [Eh]
	 Opposite-Spin Energy      =      -0.1139062115113179 [Eh]
	 Correlation Energy        =      -0.1418634701330834 [Eh]
	 Total Energy              =     -40.3369571094180372 [Eh]

	 ================> DF-SCS-MP2 Energies <==================
	-----------------------------------------------------------
	 SCS Same-Spin Scale       =       0.3333333333333333 [-]
	 SCS Opposite-Spin Scale   =       1.2000000000000000 [-]
	 SCS Same-Spin Energy      =      -0.0093190862072552 [Eh]
	 SCS Opposite-Spin Energy  =      -0.1366874538135814 [Eh]
	 SCS Correlation Energy    =      -0.1460065400208366 [Eh]
	 SCS Total Energy          =     -40.3411001793057906 [Eh]
	-----------------------------------------------------------

  -Total Gradient:
     Atom            X                  Y                   Z
    ------   -----------------  -----------------  -----------------
       1        0.000073190426     0.000015172762    -0.000185071950
       2        0.000335186683     0.000218428853     0.000088849430
       3       -0.000113904232    -0.000166121312     0.000040256435
       4       -0.000140013798     0.000011420398     0.000035449243
       5       -0.000154459078    -0.000078900702     0.000020516842

  **** Optimization is complete! (in 3 steps) ****
    Final optimized geometry and variables:
    Molecular point group: c1

    Geometry (in Angstrom), charge = 0, multiplicity = 1:

    H           -0.726804621093    -0.247726259602     0.772613386184
    C            0.000195193365     0.000098418116     0.000004902477
    H           -0.328138708598     0.891315013383    -0.533708328211
    H            0.082829390019    -0.831530365136    -0.699134120368
    H            0.969789805713     0.186769763712     0.460170689440

*** Psi4 exiting successfully. Buy a developer a beer!
