                               Psi4 1.3.2 release

  ==> Input File <==

--------------------------------------------------------------------------
molecule {
0 1
H         -6.37020        1.01670        1.06340
C         -6.95280        0.08910        0.82430
H         -6.70880       -0.63220        1.65040
H         -6.65280       -0.30900       -0.12250
H         -8.00320        0.28190        0.75850
}
memory 100GB
set_num_threads(12)
psi4_io.set_default_path("/scratch/bdw2292/Psi4-farH_in17")
set maxiter 500
set freeze_core True
set PROPERTIES_ORIGIN ["COM"]
set cubeprop_tasks ['esp']
E, wfn = properties('hf/MINIX',properties=['dipole'],return_wfn=True)
cubeprop(wfn)
fchk(wfn, "farH_in17-esp_frag.fchk")
oeprop(wfn,"WIBERG_LOWDIN_INDICES","MULLIKEN_CHARGES")
clean()
--------------------------------------------------------------------------

    Molecular point group: c1

    Geometry (in Angstrom), charge = 0, multiplicity = 1:

       Center              X                  Y                   Z               Mass
    ------------   -----------------  -----------------  -----------------  -----------------
         H            0.577809604534     0.927537133918     0.235793244074     1.007825032230
         C           -0.004790395466    -0.000062866082    -0.003306755926    12.000000000000
         H            0.239209604534    -0.721362866082     0.822793244074     1.007825032230
         H            0.295209604534    -0.398162866082    -0.950106755926     1.007825032230
         H           -1.055190395466     0.192737133918    -0.069106755926     1.007825032230

  Charge       = 0
  Multiplicity = 1
  Basis Set: MINIX
    Blend: MINIX
  Basis Set: (MINIX AUX)
    Blend: DEF2-SVP-JKFIT

    Orbital Energies [Eh]
    ---------------------

    Doubly Occupied:

       1A    -11.132197     2A     -0.938655     3A     -0.555412
       4A     -0.545705     5A     -0.527004

  @DF-RHF Final Energy:   -39.93392547754040

   => Energetics <=

    Nuclear Repulsion Energy =             13.3673583077655653
    One-Electron Energy =                 -79.2046218382947131
    Two-Electron Energy =                  25.9033380529887403
    Total Energy =                        -39.9339254775403987

  Dipole Moment: [D]
     X:     0.0410      Y:     0.0022      Z:     0.0333     Total:     0.0529

  Basis Set: MINIX
    Blend: MINIX

  Mulliken Charges: (a.u.)
   Center  Symbol    Alpha    Beta     Spin     Total
       1     H     0.43759  0.43759  0.00000  0.12483
       2     C     3.24904  3.24904  0.00000 -0.49808
       3     H     0.43757  0.43757  0.00000  0.12486
       4     H     0.43817  0.43817  0.00000  0.12366
       5     H     0.43763  0.43763  0.00000  0.12473

   Total alpha =  5.00000, Total beta =  5.00000, Total charge = -0.00000

*** Psi4 exiting successfully. Buy a developer a beer!
