                               Psi4 1.3.2 release

  ==> Input File <==

--------------------------------------------------------------------------
molecule {
0 1
 C    2.025900   -0.304000    0.109100
 C    0.588300   -0.062000    0.067600
 C   -1.562000   -0.272400   -0.975800
 C   -2.189200    0.431900    0.032300
 C   -0.191000   -0.523700   -0.971300
 C   -1.394700    0.887000    1.064700
 C   -0.023400    0.642700    1.081200
 O    2.693200   -1.006200   -0.882800
 O    2.704000    0.133100    1.073600
 H    0.293100   -1.081400   -1.773600
 H   -1.823800    1.445400    1.885600
 H    0.605400    0.998600    1.891100
 H   -2.158000   -0.649500   -1.811500
 H   -3.255400    0.622200    0.019900
 H    3.687700   -1.261800   -0.810100
}
set {
  geom_maxiter 400
  g_convergence GAU
  dynamic_level 1
}
memory 8.333333333333334GB
set_num_threads(1)
psi4_io.set_default_path("/scratch/bdw2292/Psi4-34_Index_0-farH_in17")
for _ in range(1):
  try:
    set opt_coordinates both
    optimize('mp2/6-31G*')
    break
  except OptimizationConvergenceError:
    break
  else:
    try:
      set opt_coordinates cartesian
      optimize('mp2/6-31G*')
      break
    except OptimizationConvergenceError:
      pass
clean()
--------------------------------------------------------------------------

    Molecular point group: c1
  Charge       = 0
  Multiplicity = 1
  Basis Set: 6-31G*
    Blend: 6-31G*
  Basis Set: (6-31G* AUX)
    Blend: CC-PVDZ-JKFIT
  @DF-RHF Final Energy:  -418.29139425277447
    Total Energy =                       -418.2913942527744666
  Basis Set: (6-31G* AUX)
    Blend: CC-PVDZ-RI
    Molecular point group: c1
  Basis Set: 6-31G*
    Blend: 6-31G*
  Basis Set: (6-31G* AUX)
    Blend: CC-PVDZ-JKFIT
  Basis Set: (6-31G* AUX)
    Blend: CC-PVDZ-JKFIT
	 Reference Energy          =    -418.2913942527744666 [Eh]
	 Singles Energy            =      -0.0000000000000000 [Eh]
	 Same-Spin Energy          =      -0.3480219547187775 [Eh]
	 Opposite-Spin Energy      =      -0.9314701210333846 [Eh]
	 Correlation Energy        =      -1.2794920757521622 [Eh]
	 Total Energy              =    -419.5708863285266261 [Eh]
	 SCS Total Energy          =    -419.5251657162540937 [Eh]
  @DF-RHF Final Energy:  -418.31719298118099
    Total Energy =                       -418.3171929811810514
  @DF-RHF Final Energy:  -418.31906813778181
    Total Energy =                       -418.3190681377818692
  @DF-RHF Final Energy:  -418.31965324544831
    Total Energy =                       -418.3196532454483076
  @DF-RHF Final Energy:  -418.32009000849143
    Total Energy =                       -418.3200900084914338
  @DF-RHF Final Energy:  -418.31958143805196
    Total Energy =                       -418.3195814380519550
  @DF-RHF Final Energy:  -418.32009000828532
    Total Energy =                       -418.3200900082853195
  @DF-RHF Final Energy:  -418.31851870756543
    Total Energy =                       -418.3185187075654312
  @DF-RHF Final Energy:  -418.31958987745679
    Total Energy =                       -418.3195898774567922
  @DF-RHF Final Energy:  -418.32001762947863
    Total Energy =                       -418.3200176294786843
  @DF-RHF Final Energy:  -418.32008349625607
    Total Energy =                       -418.3200834962560748
  Charge       = 0
  Multiplicity = 1
  Basis Set: 6-31G*
    Blend: 6-31G*
  Basis Set: (6-31G* AUX)
    Blend: CC-PVDZ-JKFIT

    Orbital Energies [Eh]
    ---------------------

    Doubly Occupied:

       1A    -20.620404     2A    -20.554494     3A    -11.394320
       4A    -11.255776     5A    -11.255677     6A    -11.254452
       7A    -11.252321     8A    -11.246688     9A    -11.245858
      10A     -1.457783    11A     -1.351973    12A     -1.165570
      13A     -1.045701    14A     -1.026266    15A     -0.894797
      16A     -0.839623    17A     -0.796052    18A     -0.725444
      19A     -0.698742    20A     -0.670755    21A     -0.635231
      22A     -0.626923    23A     -0.620694    24A     -0.599812
      25A     -0.580643    26A     -0.522340    27A     -0.512919
      28A     -0.503435    29A     -0.477073    30A     -0.450572
      31A     -0.349643    32A     -0.344526

  @DF-RHF Final Energy:  -418.32008834217822

   => Energetics <=

    Nuclear Repulsion Energy =            404.6606048284361918
    One-Electron Energy =               -1372.0083680714271850
    Two-Electron Energy =                 549.0276749008128263
    Total Energy =                       -418.3200883421782237

  Dipole Moment: [D]
     X:    -1.8497      Y:    -0.4111      Z:    -1.3020     Total:     2.2990

  Basis Set: (6-31G* AUX)
    Blend: CC-PVDZ-RI
    Molecular point group: c1
  Basis Set: 6-31G*
    Blend: 6-31G*
  Basis Set: (6-31G* AUX)
    Blend: CC-PVDZ-JKFIT
  Basis Set: (6-31G* AUX)
    Blend: CC-PVDZ-JKFIT
	 Reference Energy          =    -418.3200883421782237 [Eh]
	 Singles Energy            =      -0.0000000000000000 [Eh]
	 Same-Spin Energy          =      -0.3465073222557514 [Eh]
	 Opposite-Spin Energy      =      -0.9279698462976386 [Eh]
	 Correlation Energy        =      -1.2744771685533900 [Eh]
	 Total Energy              =    -419.5945655107316270 [Eh]

	 ================> DF-SCS-MP2 Energies <==================
	-----------------------------------------------------------
	 SCS Same-Spin Scale       =       0.3333333333333333 [-]
	 SCS Opposite-Spin Scale   =       1.2000000000000000 [-]
	 SCS Same-Spin Energy      =      -0.1155024407519171 [Eh]
	 SCS Opposite-Spin Energy  =      -1.1135638155571663 [Eh]
	 SCS Correlation Energy    =      -1.2290662563090835 [Eh]
	 SCS Total Energy          =    -419.5491545984872914 [Eh]
	-----------------------------------------------------------

  -Total Gradient:
     Atom            X                  Y                   Z
    ------   -----------------  -----------------  -----------------
       1        0.000052950951     0.000017189113     0.000073218538
       2        0.000017393956    -0.000006082491     0.000001005802
       3        0.000002031425     0.000002112705     0.000006717293
       4        0.000004083741     0.000002594989     0.000006901306
       5       -0.000003459639    -0.000005471062    -0.000008528176
       6       -0.000007794729    -0.000002231245    -0.000009815705
       7       -0.000002213070    -0.000001428168    -0.000002236783
       8        0.000017270111     0.000013291942    -0.000016057589
       9       -0.000051340250    -0.000022809741    -0.000074959803
      10        0.000000014178     0.000005626473     0.000007004872
      11       -0.000001878619    -0.000000426038    -0.000002200436
      12       -0.000001119316    -0.000001850140    -0.000002107449
      13       -0.000000866065     0.000001847568     0.000002923786
      14        0.000001524689     0.000000567718     0.000001148837
      15       -0.000026597369    -0.000002931623     0.000016985508

  **** Optimization is complete! (in 5 steps) ****
    Final optimized geometry and variables:
    Molecular point group: c1

    Geometry (in Angstrom), charge = 0, multiplicity = 1:

    C            1.638228759196    -0.258768891248     0.093957258754
    C            0.176048282414    -0.024144824762     0.016339011568
    C           -1.965065180048    -0.251218649522    -1.068667207105
    C           -2.564666548806     0.470510253294    -0.035621822250
    C           -0.594984867576    -0.502013291362    -1.048704295731
    C           -1.790317150848     0.944959449261     1.024651351386
    C           -0.420900279956     0.699461863782     1.053499270125
    O            2.112305973372    -0.970549654496    -0.964078039426
    O            2.364610164460     0.130563472324     0.994361260254
    H           -0.123400970729    -1.062523120894    -1.849131642338
    H           -2.255887565483     1.507137775752     1.829789768246
    H            0.201194292255     1.058653649957     1.867974563113
    H           -2.567984929854    -0.620529974136    -1.894039275404
    H           -3.634323312894     0.663017517208    -0.056854206569
    H            3.073918340046    -1.059484584052    -0.800495442917

*** Psi4 exiting successfully. Buy a developer a beer!
