                               Psi4 1.3.2 release

  ==> Input File <==

--------------------------------------------------------------------------
molecule {
0 1
C 1.638228759196 -0.258768891248 0.093957258754
C 0.176048282414 -0.024144824762 0.016339011568
C -1.965065180048 -0.251218649522 -1.068667207105
C -2.564666548806 0.470510253294 -0.035621822250
C -0.594984867576 -0.502013291362 -1.048704295731
C -1.790317150848 0.944959449261 1.024651351386
C -0.420900279956 0.699461863782 1.053499270125
O 2.112305973372 -0.970549654496 -0.964078039426
O 2.364610164460 0.130563472324 0.994361260254
H -0.123400970729 -1.062523120894 -1.849131642338
H -2.255887565483 1.507137775752 1.829789768246
H 0.201194292255 1.058653649957 1.867974563113
H -2.567984929854 -0.620529974136 -1.894039275404
H -3.634323312894 0.663017517208 -0.056854206569
H 3.073918340046 -1.059484584052 -0.800495442917
}
memory 8.333333333333334GB
set_num_threads(1)
psi4_io.set_default_path("/scratch/bdw2292/Psi4-34_Index_0-farH_in17")
set freeze_core True
set PROPERTIES_ORIGIN ["COM"]
set cubeprop_tasks ['esp']
E, wfn = properties('mp2/6-311G**',properties=['dipole'],return_wfn=True)
cubeprop(wfn)
fchk(wfn, "34_Index_0-dma.fchk")
clean()
--------------------------------------------------------------------------

    Molecular point group: c1
  Charge       = 0
  Multiplicity = 1
  Basis Set: 6-311G**
    Blend: 6-311G**
  Basis Set: (6-311G** AUX)
    Blend: CC-PVTZ-JKFIT

    Orbital Energies [Eh]
    ---------------------

    Doubly Occupied:

       1A    -20.610161     2A    -20.543643     3A    -11.393147
       4A    -11.257170     5A    -11.256529     6A    -11.255997
       7A    -11.253495     8A    -11.247659     9A    -11.246875
      10A     -1.460464    11A     -1.354874    12A     -1.170209
      13A     -1.049911    14A     -1.030579    15A     -0.898587
      16A     -0.843902    17A     -0.799939    18A     -0.729885
      19A     -0.702940    20A     -0.674604    21A     -0.639390
      22A     -0.630461    23A     -0.625789    24A     -0.603878
      25A     -0.584894    26A     -0.526436    27A     -0.517305
      28A     -0.507334    29A     -0.481175    30A     -0.454900
      31A     -0.354271    32A     -0.349159

  @DF-RHF Final Energy:  -418.42234125097627

   => Energetics <=

    Nuclear Repulsion Energy =            404.6606048284001531
    One-Electron Energy =               -1372.0547668310925928
    Two-Electron Energy =                 548.9718207517161090
    Total Energy =                       -418.4223412509762738
  Basis Set: (6-311G** AUX)
    Blend: CC-PVTZ-RI
    Molecular point group: c1

    Geometry (in Angstrom), charge = 0, multiplicity = 1:

       Center              X                  Y                   Z               Mass
    ------------   -----------------  -----------------  -----------------  -----------------
         C            1.638228759196    -0.258768891248     0.093957258754    12.000000000000
         C            0.176048282414    -0.024144824762     0.016339011568    12.000000000000
         C           -1.965065180048    -0.251218649522    -1.068667207105    12.000000000000
         C           -2.564666548806     0.470510253294    -0.035621822250    12.000000000000
         C           -0.594984867576    -0.502013291362    -1.048704295731    12.000000000000
         C           -1.790317150848     0.944959449261     1.024651351386    12.000000000000
         C           -0.420900279956     0.699461863782     1.053499270125    12.000000000000
         O            2.112305973372    -0.970549654496    -0.964078039426    15.994914619570
         O            2.364610164460     0.130563472324     0.994361260254    15.994914619570
         H           -0.123400970729    -1.062523120894    -1.849131642338     1.007825032230
         H           -2.255887565483     1.507137775752     1.829789768246     1.007825032230
         H            0.201194292255     1.058653649957     1.867974563113     1.007825032230
         H           -2.567984929854    -0.620529974136    -1.894039275404     1.007825032230
         H           -3.634323312894     0.663017517208    -0.056854206569     1.007825032230
         H            3.073918340046    -1.059484584052    -0.800495442917     1.007825032230

  Basis Set: 6-311G**
    Blend: 6-311G**
  Basis Set: (6-311G** AUX)
    Blend: CC-PVTZ-JKFIT
	 Reference Energy          =    -418.4223412509762738 [Eh]
	 Singles Energy            =      -0.0000000000000000 [Eh]
	 Same-Spin Energy          =      -0.3619728564098513 [Eh]
	 Opposite-Spin Energy      =      -0.9807194037587919 [Eh]
	 Correlation Energy        =      -1.3426922601686431 [Eh]
	 Total Energy              =    -419.7650335111449067 [Eh]

	 ================> DF-SCS-MP2 Energies <==================
	-----------------------------------------------------------
	 SCS Same-Spin Scale       =       0.3333333333333333 [-]
	 SCS Opposite-Spin Scale   =       1.2000000000000000 [-]
	 SCS Same-Spin Energy      =      -0.1206576188032838 [Eh]
	 SCS Opposite-Spin Energy  =      -1.1768632845105502 [Eh]
	 SCS Correlation Energy    =      -1.2975209033138340 [Eh]
	 SCS Total Energy          =    -419.7198621542901265 [Eh]
	-----------------------------------------------------------

  Dipole Moment: [D]
     X:    -1.2468      Y:    -0.3820      Z:    -1.0558     Total:     1.6779

  Basis Set: 6-311G**
    Blend: 6-311G**
*** Psi4 exiting successfully. Buy a developer a beer!
