                               Psi4 1.3.2 release

  ==> Input File <==

--------------------------------------------------------------------------
molecule {
0 1
C 1.638228759196 -0.258768891248 0.093957258754
C 0.176048282414 -0.024144824762 0.016339011568
C -1.965065180048 -0.251218649522 -1.068667207105
C -2.564666548806 0.470510253294 -0.035621822250
C -0.594984867576 -0.502013291362 -1.048704295731
C -1.790317150848 0.944959449261 1.024651351386
C -0.420900279956 0.699461863782 1.053499270125
O 2.112305973372 -0.970549654496 -0.964078039426
O 2.364610164460 0.130563472324 0.994361260254
H -0.123400970729 -1.062523120894 -1.849131642338
H -2.255887565483 1.507137775752 1.829789768246
H 0.201194292255 1.058653649957 1.867974563113
H -2.567984929854 -0.620529974136 -1.894039275404
H -3.634323312894 0.663017517208 -0.056854206569
H 3.073918340046 -1.059484584052 -0.800495442917
}
memory 8.333333333333334GB
set_num_threads(1)
psi4_io.set_default_path("/scratch/bdw2292/Psi4-34_Index_0-farH_in17")
set maxiter 500
set freeze_core True
set PROPERTIES_ORIGIN ["COM"]
set cubeprop_tasks ['esp']
E, wfn = properties('mp2/aug-cc-pVTZ',properties=['dipole'],return_wfn=True)
cubeprop(wfn)
fchk(wfn, "34_Index_0-esp.fchk")
oeprop(wfn,"GRID_ESP","WIBERG_LOWDIN_INDICES","MULLIKEN_CHARGES")
clean()
--------------------------------------------------------------------------

    Molecular point group: c1
  Charge       = 0
  Multiplicity = 1
  Basis Set: AUG-CC-PVTZ
    Blend: AUG-CC-PVTZ
  Basis Set: (AUG-CC-PVTZ AUX)
    Blend: AUG-CC-PVTZ-JKFIT

    Orbital Energies [Eh]
    ---------------------

    Doubly Occupied:

       1A    -20.617095     2A    -20.549556     3A    -11.393948
       4A    -11.258963     5A    -11.258363     6A    -11.257756
       7A    -11.255170     8A    -11.249457     9A    -11.248615
      10A     -1.461721    11A     -1.356531    12A     -1.171543
      13A     -1.051209    14A     -1.031824    15A     -0.900043
      16A     -0.845284    17A     -0.801370    18A     -0.731272
      19A     -0.705335    20A     -0.676177    21A     -0.640923
      22A     -0.633192    23A     -0.627485    24A     -0.605037
      25A     -0.586977    26A     -0.528057    27A     -0.519909
      28A     -0.508815    29A     -0.484474    30A     -0.458089
      31A     -0.356680    32A     -0.351260

  @DF-RHF Final Energy:  -418.47348271835079

   => Energetics <=

    Nuclear Repulsion Energy =            404.6606048284001531
    One-Electron Energy =               -1372.0239155556112109
    Two-Electron Energy =                 548.8898280088601496
    Total Energy =                       -418.4734827183508514
  Basis Set: (AUG-CC-PVTZ AUX)
    Blend: AUG-CC-PVTZ-RI
    Molecular point group: c1

    Geometry (in Angstrom), charge = 0, multiplicity = 1:

       Center              X                  Y                   Z               Mass
    ------------   -----------------  -----------------  -----------------  -----------------
         C            1.638228759196    -0.258768891248     0.093957258754    12.000000000000
         C            0.176048282414    -0.024144824762     0.016339011568    12.000000000000
         C           -1.965065180048    -0.251218649522    -1.068667207105    12.000000000000
         C           -2.564666548806     0.470510253294    -0.035621822250    12.000000000000
         C           -0.594984867576    -0.502013291362    -1.048704295731    12.000000000000
         C           -1.790317150848     0.944959449261     1.024651351386    12.000000000000
         C           -0.420900279956     0.699461863782     1.053499270125    12.000000000000
         O            2.112305973372    -0.970549654496    -0.964078039426    15.994914619570
         O            2.364610164460     0.130563472324     0.994361260254    15.994914619570
         H           -0.123400970729    -1.062523120894    -1.849131642338     1.007825032230
         H           -2.255887565483     1.507137775752     1.829789768246     1.007825032230
         H            0.201194292255     1.058653649957     1.867974563113     1.007825032230
         H           -2.567984929854    -0.620529974136    -1.894039275404     1.007825032230
         H           -3.634323312894     0.663017517208    -0.056854206569     1.007825032230
         H            3.073918340046    -1.059484584052    -0.800495442917     1.007825032230

  Basis Set: AUG-CC-PVTZ
    Blend: AUG-CC-PVTZ
  Basis Set: (AUG-CC-PVTZ AUX)
    Blend: AUG-CC-PVTZ-JKFIT
	 Reference Energy          =    -418.4734827183507946 [Eh]
	 Singles Energy            =      -0.0000000000000000 [Eh]
	 Same-Spin Energy          =      -0.4104689140278861 [Eh]
	 Opposite-Spin Energy      =      -1.1778100958932933 [Eh]
	 Correlation Energy        =      -1.5882790099211794 [Eh]
	 Total Energy              =    -420.0617617282719607 [Eh]

	 ================> DF-SCS-MP2 Energies <==================
	-----------------------------------------------------------
	 SCS Same-Spin Scale       =       0.3333333333333333 [-]
	 SCS Opposite-Spin Scale   =       1.2000000000000000 [-]
	 SCS Same-Spin Energy      =      -0.1368229713426287 [Eh]
	 SCS Opposite-Spin Energy  =      -1.4133721150719520 [Eh]
	 SCS Correlation Energy    =      -1.5501950864145808 [Eh]
	 SCS Total Energy          =    -420.0236778047653843 [Eh]
	-----------------------------------------------------------

  Dipole Moment: [D]
     X:    -1.5665      Y:    -0.3713      Z:    -1.1421     Total:     1.9739

  Basis Set: AUG-CC-PVTZ
    Blend: AUG-CC-PVTZ

  Mulliken Charges: (a.u.)
   Center  Symbol    Alpha    Beta     Spin     Total
       1     C     2.84731  2.84731  0.00000  0.30537
       2     C     2.11072  2.11072  0.00000  1.77857
       3     C     3.28566  3.28566  0.00000 -0.57132
       4     C     3.14761  3.14761  0.00000 -0.29521
       5     C     3.37233  3.37233  0.00000 -0.74467
       6     C     3.22402  3.22402  0.00000 -0.44805
       7     C     3.52120  3.52120  0.00000 -1.04241
       8     O     4.20121  4.20121  0.00000 -0.40242
       9     O     4.38698  4.38698  0.00000 -0.77397
      10     H     0.35294  0.35294  0.00000  0.29412
      11     H     0.25879  0.25879  0.00000  0.48242
      12     H     0.36565  0.36565  0.00000  0.26869
      13     H     0.26006  0.26006  0.00000  0.47987
      14     H     0.29580  0.29580  0.00000  0.40840
      15     H     0.36970  0.36970  0.00000  0.26060

   Total alpha = 32.00000, Total beta = 32.00000, Total charge = -0.00000

*** Psi4 exiting successfully. Buy a developer a beer!
