                               Psi4 1.3.2 release

  ==> Input File <==

--------------------------------------------------------------------------
molecule {
0 1
C          8.61540       -0.66340       -0.41090
C          7.66120       -0.60180        0.67160
C          5.45820        0.01300        1.45740
C          5.83990       -0.47630        2.69740
C          6.39930       -0.06410        0.46320
C          7.09490       -1.01690        2.92680
C          8.00280       -1.07540        1.90020
O          9.88110       -1.19320       -0.20240
O          8.34630       -0.25270       -1.54960
H          6.14600        0.33410       -0.49780
H          7.34390       -1.39140        3.92730
H          9.00180       -1.50930        2.09970
H          4.52080        0.41180        1.29250
H          5.16520       -0.43640        3.47730
H         10.12110       -1.51360        0.64480
}
memory 100GB
set_num_threads(12)
psi4_io.set_default_path("/scratch/bdw2292/Psi4-farH_in17")
set maxiter 500
set freeze_core True
set PROPERTIES_ORIGIN ["COM"]
set cubeprop_tasks ['esp']
E, wfn = properties('hf/MINIX',properties=['dipole'],return_wfn=True)
cubeprop(wfn)
fchk(wfn, "farH_in17-esp_frag.fchk")
oeprop(wfn,"WIBERG_LOWDIN_INDICES","MULLIKEN_CHARGES")
clean()
--------------------------------------------------------------------------

    Molecular point group: c1

    Geometry (in Angstrom), charge = 0, multiplicity = 1:

       Center              X                  Y                   Z               Mass
    ------------   -----------------  -----------------  -----------------  -----------------
         C            1.051812198829    -0.057986061806    -1.226021028569    12.000000000000
         C            0.097612198829     0.003613938194    -0.143521028569    12.000000000000
         C           -2.105387801171     0.618413938194     0.642278971431    12.000000000000
         C           -1.723687801171     0.129113938194     1.882278971431    12.000000000000
         C           -1.164287801171     0.541313938194    -0.351921028569    12.000000000000
         C           -0.468687801171    -0.411486061806     2.111678971431    12.000000000000
         C            0.439212198829    -0.469986061806     1.085078971431    12.000000000000
         O            2.317512198829    -0.587786061806    -1.017521028569    15.994914619570
         O            0.782712198829     0.352713938194    -2.364721028569    15.994914619570
         H           -1.417587801171     0.939513938194    -1.312921028569     1.007825032230
         H           -0.219687801171    -0.785986061806     3.112178971431     1.007825032230
         H            1.438212198829    -0.903886061806     1.284578971431     1.007825032230
         H           -3.042787801171     1.017213938194     0.477378971431     1.007825032230
         H           -2.398387801171     0.169013938194     2.662178971431     1.007825032230
         H            2.557512198829    -0.908186061806    -0.170321028569     1.007825032230

  Charge       = 0
  Multiplicity = 1
  Basis Set: MINIX
    Blend: MINIX
  Basis Set: (MINIX AUX)
    Blend: DEF2-SVP-JKFIT

    Orbital Energies [Eh]
    ---------------------

    Doubly Occupied:

       1A    -20.367428     2A    -20.332671     3A    -11.366446
       4A    -11.227594     5A    -11.220645     6A    -11.213558
       7A    -11.212529     8A    -11.207913     9A    -11.206185
      10A     -1.432107    11A     -1.335009    12A     -1.210292
      13A     -1.081923    14A     -1.060778    15A     -0.910024
      16A     -0.865466    17A     -0.811324    18A     -0.775028
      19A     -0.701507    20A     -0.670080    21A     -0.656486
      22A     -0.623254    23A     -0.622194    24A     -0.591376
      25A     -0.551929    26A     -0.546195    27A     -0.527726
      28A     -0.513001    29A     -0.444980    30A     -0.429877
      31A     -0.388706    32A     -0.371507

  @DF-RHF Final Energy:  -415.39498475692358

   => Energetics <=

    Nuclear Repulsion Energy =            408.4134577020889765
    One-Electron Energy =               -1374.6654338947967062
    Two-Electron Energy =                 550.8569914357841526
    Total Energy =                       -415.3949847569235772

  Dipole Moment: [D]
     X:    -1.2129      Y:    -0.8206      Z:     4.7452     Total:     4.9660

  Basis Set: MINIX
    Blend: MINIX

  Mulliken Charges: (a.u.)
   Center  Symbol    Alpha    Beta     Spin     Total
       1     C     2.76161  2.76161  0.00000  0.47679
       2     C     3.03495  3.03495  0.00000 -0.06990
       3     C     3.07398  3.07398  0.00000 -0.14796
       4     C     3.06094  3.06094  0.00000 -0.12189
       5     C     3.04905  3.04905  0.00000 -0.09810
       6     C     3.06807  3.06807  0.00000 -0.13614
       7     C     3.05778  3.05778  0.00000 -0.11556
       8     O     4.25147  4.25147  0.00000 -0.50294
       9     O     4.18831  4.18831  0.00000 -0.37662
      10     H     0.41488  0.41488  0.00000  0.17024
      11     H     0.42475  0.42475  0.00000  0.15050
      12     H     0.43377  0.43377  0.00000  0.13246
      13     H     0.42260  0.42260  0.00000  0.15481
      14     H     0.42579  0.42579  0.00000  0.14843
      15     H     0.33206  0.33206  0.00000  0.33588

   Total alpha = 32.00000, Total beta = 32.00000, Total charge =  0.00000

*** Psi4 exiting successfully. Buy a developer a beer!
