                               Psi4 1.3.2 release

  ==> Input File <==

--------------------------------------------------------------------------
molecule {
0 1
Cl   -0.897400   -0.534800    1.431100
Cl   -0.695600    1.519900   -0.649200
Cl   -0.072300   -1.303700   -1.204700
Cl    1.677700    0.311800    0.427600
 C   -0.012400    0.006800   -0.004800
}
set {
  geom_maxiter 400
  g_convergence GAU
  dynamic_level 1
}
memory 15GB
set_num_threads(4)
psi4_io.set_default_path("/scratch/bdw2292/Psi4-CCl4")
for _ in range(1):
  try:
    set opt_coordinates both
    optimize('mp2/6-31G*')
    break
  except OptimizationConvergenceError:
    break
  else:
    try:
      set opt_coordinates cartesian
      optimize('mp2/6-31G*')
      break
    except OptimizationConvergenceError:
      pass
clean()
--------------------------------------------------------------------------

    Molecular point group: c1
  Charge       = 0
  Multiplicity = 1
  Basis Set: 6-31G*
    Blend: 6-31G*
  Basis Set: (6-31G* AUX)
    Blend: CC-PVDZ-JKFIT
  @DF-RHF Final Energy: -1875.74336427299636
    Total Energy =                      -1875.7433642729963594
  Basis Set: (6-31G* AUX)
    Blend: CC-PVDZ-RI
    Molecular point group: c1
  Basis Set: 6-31G*
    Blend: 6-31G*
  Basis Set: (6-31G* AUX)
    Blend: CC-PVDZ-JKFIT
  Basis Set: (6-31G* AUX)
    Blend: CC-PVDZ-JKFIT
	 Reference Energy          =   -1875.7433642729963594 [Eh]
	 Singles Energy            =      -0.0000000000000000 [Eh]
	 Same-Spin Energy          =      -0.1937702939434898 [Eh]
	 Opposite-Spin Energy      =      -0.5143565639080507 [Eh]
	 Correlation Energy        =      -0.7081268578515405 [Eh]
	 Total Energy              =   -1876.4514911308478986 [Eh]
	 SCS Total Energy          =   -1876.4251822476671805 [Eh]
  @DF-RHF Final Energy: -1875.74415696706478
    Total Energy =                      -1875.7441569670647823
  @DF-RHF Final Energy: -1875.74424856568703
    Total Energy =                      -1875.7442485656870304
  Charge       = 0
  Multiplicity = 1
  Basis Set: 6-31G*
    Blend: 6-31G*
  Basis Set: (6-31G* AUX)
    Blend: CC-PVDZ-JKFIT

    Orbital Energies [Eh]
    ---------------------

    Doubly Occupied:

       1A   -104.868513     2A   -104.868478     3A   -104.868472
       4A   -104.868436     5A    -11.498902     6A    -10.602938
       7A    -10.602902     8A    -10.602885     9A    -10.602846
      10A     -8.072350    11A     -8.072312    12A     -8.072297
      13A     -8.072260    14A     -8.068294    15A     -8.068294
      16A     -8.068257    17A     -8.068257    18A     -8.068245
      19A     -8.068245    20A     -8.068208    21A     -8.068208
      22A     -1.292499    23A     -1.133910    24A     -1.133837
      25A     -1.133771    26A     -0.839358    27A     -0.664353
      28A     -0.664321    29A     -0.664294    30A     -0.533261
      31A     -0.533254    32A     -0.492412    33A     -0.492370
      34A     -0.492331    35A     -0.464032    36A     -0.464018
      37A     -0.464006

  @DF-RHF Final Energy: -1875.74424901079510

   => Energetics <=

    Nuclear Repulsion Energy =            439.6313032184493750
    One-Electron Energy =               -3467.3878455326121184
    Two-Electron Energy =                1152.0122933033676418
    Total Energy =                      -1875.7442490107951016

  Dipole Moment: [D]
     X:    -0.0011      Y:     0.0008      Z:     0.0020     Total:     0.0024

  Basis Set: (6-31G* AUX)
    Blend: CC-PVDZ-RI
    Molecular point group: c1
  Basis Set: 6-31G*
    Blend: 6-31G*
  Basis Set: (6-31G* AUX)
    Blend: CC-PVDZ-JKFIT
  Basis Set: (6-31G* AUX)
    Blend: CC-PVDZ-JKFIT
	 Reference Energy          =   -1875.7442490107951016 [Eh]
	 Singles Energy            =      -0.0000000000000000 [Eh]
	 Same-Spin Energy          =      -0.1939280654480377 [Eh]
	 Opposite-Spin Energy      =      -0.5140684903899020 [Eh]
	 Correlation Energy        =      -0.7079965558379397 [Eh]
	 Total Energy              =   -1876.4522455666331098 [Eh]

	 ================> DF-SCS-MP2 Energies <==================
	-----------------------------------------------------------
	 SCS Same-Spin Scale       =       0.3333333333333333 [-]
	 SCS Opposite-Spin Scale   =       1.2000000000000000 [-]
	 SCS Same-Spin Energy      =      -0.0646426884826792 [Eh]
	 SCS Opposite-Spin Energy  =      -0.6168821884678823 [Eh]
	 SCS Correlation Energy    =      -0.6815248769505615 [Eh]
	 SCS Total Energy          =   -1876.4257738877456632 [Eh]
	-----------------------------------------------------------

  -Total Gradient:
     Atom            X                  Y                   Z
    ------   -----------------  -----------------  -----------------
       1        0.000031363597     0.000023538678    -0.000088925445
       2        0.000020169280    -0.000048222319     0.000006930846
       3       -0.000017345711    -0.000062200749    -0.000074860280
       4        0.000053145602     0.000020294942    -0.000002519580
       5       -0.000087332871     0.000066589459     0.000159374396

  **** Optimization is complete! (in 4 steps) ****
    Final optimized geometry and variables:
    Molecular point group: c1

    Geometry (in Angstrom), charge = 0, multiplicity = 1:

    CL          -0.900180827116    -0.507459361340     1.435986710165
    CL          -0.713578787470     1.482673317759    -0.649812878936
    CL          -0.074095561035    -1.275691315945    -1.223781984740
    CL           1.687885042709     0.300450011522     0.437514642891
    C           -0.000087034816     0.000079694023     0.000272496595

*** Psi4 exiting successfully. Buy a developer a beer!
