                               Psi4 1.3.2 release

  ==> Input File <==

--------------------------------------------------------------------------
molecule {
0 1
CL -0.900180827116 -0.507459361340 1.435986710165
CL -0.713578787470 1.482673317759 -0.649812878936
CL -0.074095561035 -1.275691315945 -1.223781984740
CL 1.687885042709 0.300450011522 0.437514642891
C -0.000087034816 0.000079694023 0.000272496595
}
memory 15GB
set_num_threads(4)
psi4_io.set_default_path("/scratch/bdw2292/Psi4-CCl4")
set maxiter 500
set freeze_core True
set PROPERTIES_ORIGIN ["COM"]
set cubeprop_tasks ['esp']
E, wfn = properties('mp2/aug-cc-pVTZ',properties=['dipole'],return_wfn=True)
cubeprop(wfn)
fchk(wfn, "CCl4-esp.fchk")
oeprop(wfn,"GRID_ESP","WIBERG_LOWDIN_INDICES","MULLIKEN_CHARGES")
clean()
--------------------------------------------------------------------------

    Molecular point group: c1
  Charge       = 0
  Multiplicity = 1
  Basis Set: AUG-CC-PVTZ
    Blend: AUG-CC-PVTZ
  Basis Set: (AUG-CC-PVTZ AUX)
    Blend: AUG-CC-PVTZ-JKFIT

    Orbital Energies [Eh]
    ---------------------

    Doubly Occupied:

       1A   -104.878690     2A   -104.878655     3A   -104.878649
       4A   -104.878615     5A    -11.499520     6A    -10.603141
       7A    -10.603105     8A    -10.603091     9A    -10.603054
      10A     -8.069909    11A     -8.069872    12A     -8.069861
      13A     -8.069824    14A     -8.067618    15A     -8.067618
      16A     -8.067582    17A     -8.067582    18A     -8.067571
      19A     -8.067571    20A     -8.067534    21A     -8.067534
      22A     -1.282816    23A     -1.128442    24A     -1.128370
      25A     -1.128306    26A     -0.834203    27A     -0.658402
      28A     -0.658370    29A     -0.658342    30A     -0.532375
      31A     -0.532368    32A     -0.489204    33A     -0.489162
      34A     -0.489124    35A     -0.460770    36A     -0.460757
      37A     -0.460745

  @DF-RHF Final Energy: -1875.91639100100906

   => Energetics <=

    Nuclear Repulsion Energy =            439.6313032184405643
    One-Electron Energy =               -3467.8186862089460192
    Two-Electron Energy =                1152.2709919894962241
    Total Energy =                      -1875.9163910010090603
  Basis Set: (AUG-CC-PVTZ AUX)
    Blend: AUG-CC-PVTZ-RI
    Molecular point group: c1

    Geometry (in Angstrom), charge = 0, multiplicity = 1:

       Center              X                  Y                   Z               Mass
    ------------   -----------------  -----------------  -----------------  -----------------
         CL          -0.900180827116    -0.507459361340     1.435986710165    34.968852682000
         CL          -0.713578787470     1.482673317759    -0.649812878936    34.968852682000
         CL          -0.074095561035    -1.275691315945    -1.223781984740    34.968852682000
         CL           1.687885042709     0.300450011522     0.437514642891    34.968852682000
         C           -0.000087034816     0.000079694023     0.000272496595    12.000000000000

  Basis Set: AUG-CC-PVTZ
    Blend: AUG-CC-PVTZ
  Basis Set: (AUG-CC-PVTZ AUX)
    Blend: AUG-CC-PVTZ-JKFIT
	 Reference Energy          =   -1875.9163910010090603 [Eh]
	 Singles Energy            =      -0.0000000000000000 [Eh]
	 Same-Spin Energy          =      -0.2463822706206305 [Eh]
	 Opposite-Spin Energy      =      -0.7042107685190927 [Eh]
	 Correlation Energy        =      -0.9505930391397233 [Eh]
	 Total Energy              =   -1876.8669840401487363 [Eh]

	 ================> DF-SCS-MP2 Energies <==================
	-----------------------------------------------------------
	 SCS Same-Spin Scale       =       0.3333333333333333 [-]
	 SCS Opposite-Spin Scale   =       1.2000000000000000 [-]
	 SCS Same-Spin Energy      =      -0.0821274235402102 [Eh]
	 SCS Opposite-Spin Energy  =      -0.8450529222229112 [Eh]
	 SCS Correlation Energy    =      -0.9271803457631214 [Eh]
	 SCS Total Energy          =   -1876.8435713467722508 [Eh]
	-----------------------------------------------------------

  Dipole Moment: [D]
     X:    -0.0011      Y:     0.0008      Z:     0.0018     Total:     0.0023

  Basis Set: AUG-CC-PVTZ
    Blend: AUG-CC-PVTZ

  Mulliken Charges: (a.u.)
   Center  Symbol    Alpha    Beta     Spin     Total
       1    CL     8.54468  8.54468  0.00000 -0.08936
       2    CL     8.54471  8.54471  0.00000 -0.08942
       3    CL     8.54480  8.54480  0.00000 -0.08960
       4    CL     8.54477  8.54477  0.00000 -0.08955
       5     C     2.82104  2.82104  0.00000  0.35792

   Total alpha = 37.00000, Total beta = 37.00000, Total charge = -0.00000

*** Psi4 exiting successfully. Buy a developer a beer!
