                               Psi4 1.3.2 release

  ==> Input File <==

--------------------------------------------------------------------------
molecule {
0 1
CL -0.900180827116 -0.507459361340 1.435986710165
CL -0.713578787470 1.482673317759 -0.649812878936
CL -0.074095561035 -1.275691315945 -1.223781984740
CL 1.687885042709 0.300450011522 0.437514642891
C -0.000087034816 0.000079694023 0.000272496595
}
memory 15GB
set_num_threads(4)
psi4_io.set_default_path("/scratch/bdw2292/Psi4-CCl4")
set freeze_core True
set PROPERTIES_ORIGIN ["COM"]
set cubeprop_tasks ['esp']
E, wfn = properties('mp2/6-311G**',properties=['dipole'],return_wfn=True)
cubeprop(wfn)
fchk(wfn, "CCl4-dma.fchk")
clean()
--------------------------------------------------------------------------

    Molecular point group: c1
  Charge       = 0
  Multiplicity = 1
  Basis Set: 6-311G**
    Blend: 6-311G**
  Basis Set: (6-311G** AUX)
    Blend: CC-PVTZ-JKFIT

    Orbital Energies [Eh]
    ---------------------

    Doubly Occupied:

       1A   -104.881734     2A   -104.881699     3A   -104.881694
       4A   -104.881659     5A    -11.503639     6A    -10.608572
       7A    -10.608537     8A    -10.608515     9A    -10.608465
      10A     -8.076813    11A     -8.076775    12A     -8.076763
      13A     -8.076725    14A     -8.073228    15A     -8.073228
      16A     -8.073191    17A     -8.073191    18A     -8.073179
      19A     -8.073179    20A     -8.073142    21A     -8.073142
      22A     -1.292570    23A     -1.136389    24A     -1.136316
      25A     -1.136250    26A     -0.841074    27A     -0.666439
      28A     -0.666407    29A     -0.666379    30A     -0.535763
      31A     -0.535756    32A     -0.495740    33A     -0.495698
      34A     -0.495660    35A     -0.466045    36A     -0.466031
      37A     -0.466019

  @DF-RHF Final Energy: -1875.85211538419276

   => Energetics <=

    Nuclear Repulsion Energy =            439.6313032184405643
    One-Electron Energy =               -3467.2556187539257735
    Two-Electron Energy =                1151.7722001512922816
    Total Energy =                      -1875.8521153841927571
  Basis Set: (6-311G** AUX)
    Blend: CC-PVTZ-RI
    Molecular point group: c1

    Geometry (in Angstrom), charge = 0, multiplicity = 1:

       Center              X                  Y                   Z               Mass
    ------------   -----------------  -----------------  -----------------  -----------------
         CL          -0.900180827116    -0.507459361340     1.435986710165    34.968852682000
         CL          -0.713578787470     1.482673317759    -0.649812878936    34.968852682000
         CL          -0.074095561035    -1.275691315945    -1.223781984740    34.968852682000
         CL           1.687885042709     0.300450011522     0.437514642891    34.968852682000
         C           -0.000087034816     0.000079694023     0.000272496595    12.000000000000

  Basis Set: 6-311G**
    Blend: 6-311G**
  Basis Set: (6-311G** AUX)
    Blend: CC-PVTZ-JKFIT
	 Reference Energy          =   -1875.8521153841927571 [Eh]
	 Singles Energy            =      -0.0000000000000000 [Eh]
	 Same-Spin Energy          =      -0.1915069718377986 [Eh]
	 Opposite-Spin Energy      =      -0.5119038598135448 [Eh]
	 Correlation Energy        =      -0.7034108316513434 [Eh]
	 Total Energy              =   -1876.5555262158441110 [Eh]

	 ================> DF-SCS-MP2 Energies <==================
	-----------------------------------------------------------
	 SCS Same-Spin Scale       =       0.3333333333333333 [-]
	 SCS Opposite-Spin Scale   =       1.2000000000000000 [-]
	 SCS Same-Spin Energy      =      -0.0638356572792662 [Eh]
	 SCS Opposite-Spin Energy  =      -0.6142846317762537 [Eh]
	 SCS Correlation Energy    =      -0.6781202890555199 [Eh]
	 SCS Total Energy          =   -1876.5302356732481712 [Eh]
	-----------------------------------------------------------

  Dipole Moment: [D]
     X:    -0.0012      Y:     0.0009      Z:     0.0020     Total:     0.0025

  Basis Set: 6-311G**
    Blend: 6-311G**
*** Psi4 exiting successfully. Buy a developer a beer!
