                               Psi4 1.3.2 release

  ==> Input File <==

--------------------------------------------------------------------------
molecule {
1 1
N 1.222140858082 1.192158561459 1.178331490527
N 4.167388667351 -1.248676273140 2.956171436156
N -3.911617145246 -1.003587244425 0.213998925645
N -7.538697781257 -0.085105392812 0.050314743846
C 3.274053977909 -0.069879698420 1.211261009112
C 4.596191145348 -0.551363183765 0.823639514286
C 2.356176129779 0.682968997227 0.532301325602
C 3.074425284938 -0.469714162406 2.634311837729
C 5.100019072943 -1.284444658101 1.921106256583
C 5.383264283969 -0.421474489764 -0.318746010349
C 2.463060217810 1.017272894084 -0.897955778013
C 6.348174096874 -1.893569038940 1.902215222481
C 6.644094580945 -1.025839694263 -0.344444866466
C 2.642095044454 0.021450152718 -1.869090853296
C 2.301500847397 2.351594849989 -1.294682247029
C -0.044317054886 0.619801844586 0.894439316089
C 2.712921778899 0.364995532601 -3.216714636906
C 2.379724956752 2.690172748816 -2.643832371227
C -0.217532651927 -0.491702017125 0.067108170501
C -1.173849291718 1.207806112187 1.476342588192
C 2.583284579501 1.699810617408 -3.606306818380
C -1.492326713235 -1.003847894493 -0.163510795361
C -2.443166545814 0.686559921076 1.270933835686
C -2.621850827254 -0.400458439100 0.400616177061
C -5.050947053381 -0.252815831313 0.209786387033
C -3.926268527202 -2.428330880278 -0.119526289566
C -6.394763932795 -0.982359724321 0.008137419575
C -7.816837139114 0.517683619787 1.350260326215
C -7.576237216589 0.920417306769 -1.012234012445
C -9.323115878629 0.829640331032 1.385567233583
C -8.870088314614 1.729823217905 -0.834457105705
C -11.262978042429 1.304852055595 -0.124819274011
C 7.120413152058 -1.763018624366 0.750179799737
C 7.440067156501 -0.863856789222 -1.588283417881
C 9.495253036016 -1.302072493427 -2.653638447358
O 2.148733947397 -0.187914731051 3.404700654260
O -5.076874895405 0.971777000349 0.399290552842
O 8.668399107622 -1.423047941353 -1.479199458388
O 7.041943462866 -0.289030887454 -2.590515058057
N -9.826811229121 0.888455047988 -0.033835833128
H -11.418212269759 1.865095603234 -1.045144173373
H 5.061321053400 0.145493175936 -1.185130407718
H 1.364994854950 1.167390411538 2.194692885112
H 4.314510418508 -1.597090639368 3.896793987548
H 6.715707363168 -2.454517759926 2.757990653988
H 2.755385854966 -1.015942232170 -1.559934460599
H 2.131277622270 3.111831645313 -0.537031586057
H 2.862067555173 -0.408961825555 -3.965087955892
H 2.276966247855 3.729145542518 -2.946408705779
H 0.641546091907 -0.993384899578 -0.363762448719
H -1.043297575094 2.069141924407 2.127205750565
H 2.646123957098 1.967294674016 -4.657843734047
H -1.581865191130 -1.861837029376 -0.820377111734
H -3.293246305138 1.152304291126 1.748900502603
H -3.343518404624 -2.974509437430 0.624839632211
H -6.543562474663 -1.745161015904 0.780425275861
H -7.216104728965 1.417063382442 1.530193163014
H -7.592672572044 0.391923932082 -1.972085762526
H -9.543558444062 1.795510341325 1.845349326269
H -9.335737746599 1.975293837694 -1.790363567137
H -11.896537688142 0.419577007817 -0.092741502257
H -3.521404018996 -2.612989543136 -1.117012142284
H -6.418057221749 -1.496261926059 -0.960614726010
H -7.576075897314 -0.198973013811 2.139214010562
H -6.715923274407 1.596964056265 -0.997376986498
H -9.904080952390 0.053385740436 1.889879396770
H -8.720205773500 2.653478379874 -0.270533018410
H -11.492726201491 1.954615003911 0.718708441800
H -4.940517488533 -2.816806237172 -0.089850378994
H 8.100637887578 -2.224806544625 0.698048271158
H 9.969718858139 -0.319411418428 -2.670915410531
H 10.250315374010 -2.079258011629 -2.553194733831
H 8.901871553865 -1.443103263077 -3.555712712677
H -9.697945205178 -0.070630415493 -0.390744570169
}
memory 100GB
set_num_threads(12)
psi4_io.set_default_path("/scratch/bdw2292/Psi4-farH_in17")
set maxiter 500
set freeze_core True
set PROPERTIES_ORIGIN ["COM"]
set cubeprop_tasks ['esp']
E, wfn = properties('hf/MINIX',properties=['dipole'],return_wfn=True)
cubeprop(wfn)
fchk(wfn, "farH_in17-esp_frag.fchk")
oeprop(wfn,"WIBERG_LOWDIN_INDICES","MULLIKEN_CHARGES")
clean()
--------------------------------------------------------------------------

    Molecular point group: c1

    Geometry (in Angstrom), charge = 1, multiplicity = 1:

       Center              X                  Y                   Z               Mass
    ------------   -----------------  -----------------  -----------------  -----------------
         N            1.222140858082     1.192158561459     1.178331490527    14.003074004430
         N            4.167388667351    -1.248676273140     2.956171436156    14.003074004430
         N           -3.911617145246    -1.003587244425     0.213998925645    14.003074004430
         N           -7.538697781257    -0.085105392812     0.050314743846    14.003074004430
         C            3.274053977909    -0.069879698420     1.211261009112    12.000000000000
         C            4.596191145348    -0.551363183765     0.823639514286    12.000000000000
         C            2.356176129779     0.682968997227     0.532301325602    12.000000000000
         C            3.074425284938    -0.469714162406     2.634311837729    12.000000000000
         C            5.100019072943    -1.284444658101     1.921106256583    12.000000000000
         C            5.383264283969    -0.421474489764    -0.318746010349    12.000000000000
         C            2.463060217810     1.017272894084    -0.897955778013    12.000000000000
         C            6.348174096874    -1.893569038940     1.902215222481    12.000000000000
         C            6.644094580945    -1.025839694263    -0.344444866466    12.000000000000
         C            2.642095044454     0.021450152718    -1.869090853296    12.000000000000
         C            2.301500847397     2.351594849989    -1.294682247029    12.000000000000
         C           -0.044317054886     0.619801844586     0.894439316089    12.000000000000
         C            2.712921778899     0.364995532601    -3.216714636906    12.000000000000
         C            2.379724956752     2.690172748816    -2.643832371227    12.000000000000
         C           -0.217532651927    -0.491702017125     0.067108170501    12.000000000000
         C           -1.173849291718     1.207806112187     1.476342588192    12.000000000000
         C            2.583284579501     1.699810617408    -3.606306818380    12.000000000000
         C           -1.492326713235    -1.003847894493    -0.163510795361    12.000000000000
         C           -2.443166545814     0.686559921076     1.270933835686    12.000000000000
         C           -2.621850827254    -0.400458439100     0.400616177061    12.000000000000
         C           -5.050947053381    -0.252815831313     0.209786387033    12.000000000000
         C           -3.926268527202    -2.428330880278    -0.119526289566    12.000000000000
         C           -6.394763932795    -0.982359724321     0.008137419575    12.000000000000
         C           -7.816837139114     0.517683619787     1.350260326215    12.000000000000
         C           -7.576237216589     0.920417306769    -1.012234012445    12.000000000000
         C           -9.323115878629     0.829640331032     1.385567233583    12.000000000000
         C           -8.870088314614     1.729823217905    -0.834457105705    12.000000000000
         C          -11.262978042429     1.304852055595    -0.124819274011    12.000000000000
         C            7.120413152058    -1.763018624366     0.750179799737    12.000000000000
         C            7.440067156501    -0.863856789222    -1.588283417881    12.000000000000
         C            9.495253036016    -1.302072493427    -2.653638447358    12.000000000000
         O            2.148733947397    -0.187914731051     3.404700654260    15.994914619570
         O           -5.076874895405     0.971777000349     0.399290552842    15.994914619570
         O            8.668399107622    -1.423047941353    -1.479199458388    15.994914619570
         O            7.041943462866    -0.289030887454    -2.590515058057    15.994914619570
         N           -9.826811229121     0.888455047988    -0.033835833128    14.003074004430
         H          -11.418212269759     1.865095603234    -1.045144173373     1.007825032230
         H            5.061321053400     0.145493175936    -1.185130407718     1.007825032230
         H            1.364994854950     1.167390411538     2.194692885112     1.007825032230
         H            4.314510418508    -1.597090639368     3.896793987548     1.007825032230
         H            6.715707363168    -2.454517759926     2.757990653988     1.007825032230
         H            2.755385854966    -1.015942232170    -1.559934460599     1.007825032230
         H            2.131277622270     3.111831645313    -0.537031586057     1.007825032230
         H            2.862067555173    -0.408961825555    -3.965087955892     1.007825032230
         H            2.276966247855     3.729145542518    -2.946408705779     1.007825032230
         H            0.641546091907    -0.993384899578    -0.363762448719     1.007825032230
         H           -1.043297575094     2.069141924407     2.127205750565     1.007825032230
         H            2.646123957098     1.967294674016    -4.657843734047     1.007825032230
         H           -1.581865191130    -1.861837029376    -0.820377111734     1.007825032230
         H           -3.293246305138     1.152304291126     1.748900502603     1.007825032230
         H           -3.343518404624    -2.974509437430     0.624839632211     1.007825032230
         H           -6.543562474663    -1.745161015904     0.780425275861     1.007825032230
         H           -7.216104728965     1.417063382442     1.530193163014     1.007825032230
         H           -7.592672572044     0.391923932082    -1.972085762526     1.007825032230
         H           -9.543558444062     1.795510341325     1.845349326269     1.007825032230
         H           -9.335737746599     1.975293837694    -1.790363567137     1.007825032230
         H          -11.896537688142     0.419577007817    -0.092741502257     1.007825032230
         H           -3.521404018996    -2.612989543136    -1.117012142284     1.007825032230
         H           -6.418057221749    -1.496261926059    -0.960614726010     1.007825032230
         H           -7.576075897314    -0.198973013811     2.139214010562     1.007825032230
         H           -6.715923274407     1.596964056265    -0.997376986498     1.007825032230
         H           -9.904080952390     0.053385740436     1.889879396770     1.007825032230
         H           -8.720205773500     2.653478379874    -0.270533018410     1.007825032230
         H          -11.492726201491     1.954615003911     0.718708441800     1.007825032230
         H           -4.940517488533    -2.816806237172    -0.089850378994     1.007825032230
         H            8.100637887578    -2.224806544625     0.698048271158     1.007825032230
         H            9.969718858139    -0.319411418428    -2.670915410531     1.007825032230
         H           10.250315374010    -2.079258011629    -2.553194733831     1.007825032230
         H            8.901871553865    -1.443103263077    -3.555712712677     1.007825032230
         H           -9.697945205178    -0.070630415493    -0.390744570169     1.007825032230

  Charge       = 1
  Multiplicity = 1
  Basis Set: MINIX
    Blend: MINIX
  Basis Set: (MINIX AUX)
    Blend: DEF2-SVP-JKFIT

    Orbital Energies [Eh]
    ---------------------

    Doubly Occupied:

       1A    -20.404629     2A    -20.377778     3A    -20.354773
       4A    -20.347380     5A    -15.770784     6A    -15.551286
       7A    -15.537172     8A    -15.514998     9A    -15.483624
      10A    -11.421664    11A    -11.411286    12A    -11.408310
      13A    -11.407758    14A    -11.392145    15A    -11.380147
      16A    -11.357510    17A    -11.355368    18A    -11.340228
      19A    -11.311731    20A    -11.301614    21A    -11.298708
      22A    -11.298073    23A    -11.293794    24A    -11.267271
      25A    -11.247469    26A    -11.245580    27A    -11.244379
      28A    -11.241860    29A    -11.241052    30A    -11.239828
      31A    -11.237876    32A    -11.236552    33A    -11.234951
      34A    -11.233475    35A    -11.233248    36A    -11.232813
      37A    -11.231904    38A    -11.228566    39A    -11.228524
      40A    -11.227446    41A     -1.529107    42A     -1.485660
      43A     -1.478493    44A     -1.435784    45A     -1.384773
      46A     -1.377698    47A     -1.343212    48A     -1.328501
      49A     -1.320214    50A     -1.228684    51A     -1.224514
      52A     -1.209480    53A     -1.204823    54A     -1.201502
      55A     -1.144218    56A     -1.124801    57A     -1.096819
      58A     -1.092197    59A     -1.084646    60A     -1.083356
      61A     -1.073494    62A     -1.068730    63A     -1.062379
      64A     -1.047727    65A     -1.034790    66A     -1.001752
      67A     -0.972592    68A     -0.958174    69A     -0.915520
      70A     -0.906662    71A     -0.903900    72A     -0.895469
      73A     -0.889457    74A     -0.878890    75A     -0.872293
      76A     -0.860665    77A     -0.854277    78A     -0.835350
      79A     -0.819455    80A     -0.812494    81A     -0.803324
      82A     -0.793215    83A     -0.781256    84A     -0.780187
      85A     -0.773424    86A     -0.771709    87A     -0.756894
      88A     -0.749854    89A     -0.748789    90A     -0.747904
      91A     -0.745608    92A     -0.735370    93A     -0.731105
      94A     -0.716949    95A     -0.708927    96A     -0.702760
      97A     -0.702126    98A     -0.699858    99A     -0.693543
     100A     -0.689272   101A     -0.679119   102A     -0.677327
     103A     -0.676020   104A     -0.674281   105A     -0.666338
     106A     -0.658418   107A     -0.653785   108A     -0.650448
     109A     -0.644584   110A     -0.641158   111A     -0.640132
     112A     -0.639367   113A     -0.633829   114A     -0.631367
     115A     -0.627507   116A     -0.620995   117A     -0.604910
     118A     -0.601779   119A     -0.595882   120A     -0.592238
     121A     -0.587222   122A     -0.575856   123A     -0.560255
     124A     -0.559026   125A     -0.552981   126A     -0.545483
     127A     -0.538305   128A     -0.535646   129A     -0.527083
     130A     -0.522236   131A     -0.492467   132A     -0.476973
     133A     -0.470426   134A     -0.462934   135A     -0.455807
     136A     -0.452641   137A     -0.446698   138A     -0.418283
     139A     -0.408716   140A     -0.400801   141A     -0.377085
     142A     -0.362599   143A     -0.328985

  @DF-RHF Final Energy: -1753.10950381278030

   => Energetics <=

    Nuclear Repulsion Energy =           4233.7557313120705658
    One-Electron Energy =              -10789.4984910565181053
    Two-Electron Energy =                4802.6332559316670086
    Total Energy =                      -1753.1095038127805310

  Dipole Moment: [D]
     X:   -40.5573      Y:    -0.2661      Z:    -0.6015     Total:    40.5626

  Basis Set: MINIX
    Blend: MINIX

  Mulliken Charges: (a.u.)
   Center  Symbol    Alpha    Beta     Spin     Total
       1     N     3.70093  3.70093  0.00000 -0.40187
       2     N     3.70385  3.70385  0.00000 -0.40771
       3     N     3.65897  3.65897  0.00000 -0.31794
       4     N     3.66732  3.66732  0.00000 -0.33465
       5     C     3.04037  3.04037  0.00000 -0.08073
       6     C     3.02287  3.02287  0.00000 -0.04574
       7     C     2.91996  2.91996  0.00000  0.16007
       8     C     2.80575  2.80575  0.00000  0.38850
       9     C     2.93666  2.93666  0.00000  0.12668
      10     C     3.04992  3.04992  0.00000 -0.09984
      11     C     3.01615  3.01615  0.00000 -0.03230
      12     C     3.08231  3.08231  0.00000 -0.16461
      13     C     3.03147  3.03147  0.00000 -0.06294
      14     C     3.06293  3.06293  0.00000 -0.12586
      15     C     3.05822  3.05822  0.00000 -0.11644
      16     C     2.94841  2.94841  0.00000  0.10318
      17     C     3.06895  3.06895  0.00000 -0.13790
      18     C     3.06937  3.06937  0.00000 -0.13874
      19     C     3.07200  3.07200  0.00000 -0.14401
      20     C     3.06778  3.06778  0.00000 -0.13557
      21     C     3.06383  3.06383  0.00000 -0.12767
      22     C     3.07047  3.07047  0.00000 -0.14094
      23     C     3.06551  3.06551  0.00000 -0.13102
      24     C     2.95545  2.95545  0.00000  0.08910
      25     C     2.80648  2.80648  0.00000  0.38705
      26     C     3.12273  3.12273  0.00000 -0.24547
      27     C     3.07409  3.07409  0.00000 -0.14819
      28     C     3.07147  3.07147  0.00000 -0.14294
      29     C     3.07202  3.07202  0.00000 -0.14404
      30     C     3.05592  3.05592  0.00000 -0.11183
      31     C     3.05908  3.05908  0.00000 -0.11815
      32     C     3.12152  3.12152  0.00000 -0.24304
      33     C     3.04987  3.04987  0.00000 -0.09973
      34     C     2.75870  2.75870  0.00000  0.48259
      35     C     3.08542  3.08542  0.00000 -0.17084
      36     O     4.22085  4.22085  0.00000 -0.44170
      37     O     4.22215  4.22215  0.00000 -0.44430
      38     O     4.21402  4.21402  0.00000 -0.42803
      39     O     4.21072  4.21072  0.00000 -0.42144
      40     N     3.65699  3.65699  0.00000 -0.31398
      41     H     0.40843  0.40843  0.00000  0.18314
      42     H     0.41174  0.41174  0.00000  0.17652
      43     H     0.35507  0.35507  0.00000  0.28987
      44     H     0.35583  0.35583  0.00000  0.28835
      45     H     0.42575  0.42575  0.00000  0.14850
      46     H     0.42771  0.42771  0.00000  0.14459
      47     H     0.42274  0.42274  0.00000  0.15452
      48     H     0.42632  0.42632  0.00000  0.14736
      49     H     0.42686  0.42686  0.00000  0.14628
      50     H     0.42547  0.42547  0.00000  0.14906
      51     H     0.42436  0.42436  0.00000  0.15129
      52     H     0.42596  0.42596  0.00000  0.14808
      53     H     0.42955  0.42955  0.00000  0.14089
      54     H     0.41909  0.41909  0.00000  0.16181
      55     H     0.42169  0.42169  0.00000  0.15662
      56     H     0.42262  0.42262  0.00000  0.15477
      57     H     0.41549  0.41549  0.00000  0.16903
      58     H     0.42474  0.42474  0.00000  0.15052
      59     H     0.41423  0.41423  0.00000  0.17154
      60     H     0.41234  0.41234  0.00000  0.17532
      61     H     0.40785  0.40785  0.00000  0.18430
      62     H     0.42764  0.42764  0.00000  0.14472
      63     H     0.42316  0.42316  0.00000  0.15367
      64     H     0.41759  0.41759  0.00000  0.16481
      65     H     0.40766  0.40766  0.00000  0.18468
      66     H     0.41359  0.41359  0.00000  0.17282
      67     H     0.41261  0.41261  0.00000  0.17479
      68     H     0.40882  0.40882  0.00000  0.18237
      69     H     0.43191  0.43191  0.00000  0.13618
      70     H     0.41501  0.41501  0.00000  0.16998
      71     H     0.42602  0.42602  0.00000  0.14796
      72     H     0.42432  0.42432  0.00000  0.15135
      73     H     0.42152  0.42152  0.00000  0.15695
      74     H     0.32484  0.32484  0.00000  0.35033

   Total alpha = 143.00000, Total beta = 143.00000, Total charge =  1.00000

*** Psi4 exiting successfully. Buy a developer a beer!
