                               Psi4 1.3.2 release

  ==> Input File <==

--------------------------------------------------------------------------
molecule {
1 1
 N    2.015000    1.485700    1.026200
 N    4.759600   -0.283700    3.579900
 N   -2.888800   -1.105400   -0.071000
 N   -6.538100   -0.481500   -0.395100
 C    4.103000    0.544600    1.490400
 C    5.458200    0.013000    1.457400
 C    3.327600    1.045100    0.557000
 C    3.684500    0.329700    2.902700
 C    5.839900   -0.476300    2.697400
 C    6.399300   -0.064100    0.463200
 C    3.533400    1.162400   -0.863300
 C    7.094900   -1.016900    2.926800
 C    7.661200   -0.601800    0.671600
 C    3.872800    0.158700   -1.738200
 C    3.355300    2.440100   -1.394400
 C    0.818700    0.796700    0.739600
 C    4.037200    0.372700   -3.088900
 C    3.521700    2.631300   -2.727400
 C    0.768400   -0.390100    0.075100
 C   -0.380800    1.377300    1.151500
 C    3.859000    1.634900   -3.601500
 C   -0.452500   -0.991300   -0.178100
 C   -1.581200    0.758900    0.888100
 C   -1.672900   -0.442300    0.217100
 C   -4.155500   -0.519500   -0.134500
 C   -2.790900   -2.557000   -0.331200
 C   -5.399600   -1.303300   -0.413600
 C   -6.952800    0.089100    0.824300
 C   -7.062000    0.020900   -1.601300
 C   -8.433500    0.349300    0.920000
 C   -8.404300    0.704800   -1.446400
 C  -10.418300    0.775600   -0.263500
 C    8.002800   -1.075400    1.900200
 C    8.615400   -0.663400   -0.410900
 C   10.884300   -1.305700   -1.166400
 O    2.580000    0.638200    3.396500
 O   -4.296000    0.709900    0.046900
 O    9.881100   -1.193200   -0.202400
 O    8.346300   -0.252700   -1.549600
 N   -9.119100    0.135200   -0.324500
 H  -10.708100    1.139500   -1.277600
 H    6.146000    0.334100   -0.497800
 H    2.046700    2.359000    1.595000
 H    4.761000   -0.555400    4.584800
 H    7.343900   -1.391400    3.927300
 H    4.015600   -0.835300   -1.351600
 H    3.089800    3.277100   -0.762900
 H    4.305100   -0.439500   -3.754000
 H    3.381700    3.623700   -3.139300
 H    1.694700   -0.881100   -0.256000
 H   -0.336200    2.312500    1.673000
 H    3.984600    1.816400   -4.665700
 H   -0.496000   -1.939200   -0.708900
 H   -2.484100    1.264100    1.246000
 H   -2.172400   -3.043900    0.424500
 H   -5.544100   -2.137300    0.308100
 H   -6.370200    1.016700    1.063400
 H   -7.172300   -0.793000   -2.341100
 H   -8.571300    1.391500    1.266900
 H   -9.004000    0.507400   -2.355500
 H  -11.153200    0.049000    0.161900
 H   -2.334000   -2.653700   -1.328600
 H   -5.240700   -1.742400   -1.438100
 H   -6.708800   -0.632200    1.650400
 H   -6.381100    0.823400   -2.010900
 H   -8.930000   -0.304500    1.676900
 H   -8.320500    1.787800   -1.340900
 H  -10.308800    1.646900    0.445700
 H   -3.807200   -3.036900   -0.273700
 H    9.001800   -1.509300    2.099700
 H   11.461700   -0.350100   -1.318300
 H   11.655500   -2.046200   -0.793400
 H   10.555000   -1.625300   -2.159500
 H   -9.273600   -0.883100   -0.482900
}
set {
  geom_maxiter 400
  g_convergence GAU
  dynamic_level 1
}
set optking {
  frozen_dihedral = ("
    16 1 7 5
, 7 1 16 19
, 26 3 24 22
, 25 3 26 55
, 28 4 27 25
, 8 5 7 1
, 5 7 11 14
, 3 25 27 4
, 13 34 38 35
, 34 38 35 71
, 30 40 32 41
  ")
}
memory 200GB
set_num_threads(12)
psi4_io.set_default_path("/scratch/eew947/Psi4-farH_in17")
for _ in range(1):
  try:
    set opt_coordinates both
    optimize('mp2/6-31G*')
    break
  except OptimizationConvergenceError:
    break
  else:
    try:
      set opt_coordinates cartesian
      optimize('mp2/6-31G*')
      break
    except OptimizationConvergenceError:
      pass
clean()
--------------------------------------------------------------------------

    Molecular point group: c1
  Charge       = 1
  Multiplicity = 1
  Basis Set: 6-31G*
    Blend: 6-31G*
  Basis Set: (6-31G* AUX)
    Blend: CC-PVDZ-JKFIT
  @DF-RHF Final Energy: -1765.10308055269070
    Total Energy =                      -1765.1030805526906988
  Basis Set: (6-31G* AUX)
    Blend: CC-PVDZ-RI
    Molecular point group: c1
  Basis Set: 6-31G*
    Blend: 6-31G*
  Basis Set: (6-31G* AUX)
    Blend: CC-PVDZ-JKFIT
  Basis Set: (6-31G* AUX)
    Blend: CC-PVDZ-JKFIT
	 Reference Energy          =   -1765.1030805526906988 [Eh]
	 Singles Energy            =      -0.0000000000000000 [Eh]
	 Same-Spin Energy          =      -1.5285883368333981 [Eh]
	 Opposite-Spin Energy      =      -4.1395602355641730 [Eh]
	 Correlation Energy        =      -5.6681485723975715 [Eh]
	 Total Energy              =   -1770.7712291250882117 [Eh]
	 SCS Total Energy          =   -1770.5800822809787860 [Eh]
  @DF-RHF Final Energy: -1765.17353980046846
    Total Energy =                      -1765.1735398004684612
  @DF-RHF Final Energy: -1765.19411105582685
    Total Energy =                      -1765.1941110558263972
  @DF-RHF Final Energy: -1765.20249832118998
    Total Energy =                      -1765.2024983211904328
  @DF-RHF Final Energy: -1765.19448226456780
    Total Energy =                      -1765.1944822645682507
  @DF-RHF Final Energy: -1765.21367831275984
    Total Energy =                      -1765.2136783127598392
  @DF-RHF Final Energy: -1765.21470231775493
    Total Energy =                      -1765.2147023177549272
  @DF-RHF Final Energy: -1765.21423783676073
    Total Energy =                      -1765.2142378367607307
  @DF-RHF Final Energy: -1765.21276089211960
    Total Energy =                      -1765.2127608921200590
  @DF-RHF Final Energy: -1765.21423783867908
    Total Energy =                      -1765.2142378386788550
  @DF-RHF Final Energy: -1765.21371515286637
    Total Energy =                      -1765.2137151528668255
  @DF-RHF Final Energy: -1765.21420236927020
    Total Energy =                      -1765.2142023692704242
  @DF-RHF Final Energy: -1765.21388233628409
    Total Energy =                      -1765.2138823362838593
  @DF-RHF Final Energy: -1765.21385729596932
    Total Energy =                      -1765.2138572959693192
  @DF-RHF Final Energy: -1765.21394835703745
    Total Energy =                      -1765.2139483570372249
  @DF-RHF Final Energy: -1765.21397763920072
    Total Energy =                      -1765.2139776392004933
  @DF-RHF Final Energy: -1765.21395440093897
    Total Energy =                      -1765.2139544009387464
  @DF-RHF Final Energy: -1765.21394665340654
    Total Energy =                      -1765.2139466534063104
  @DF-RHF Final Energy: -1765.21396196605019
    Total Energy =                      -1765.2139619660501921
  @DF-RHF Final Energy: -1765.21272163415824
    Total Energy =                      -1765.2127216341577878
  @DF-RHF Final Energy: -1765.21348033770323
    Total Energy =                      -1765.2134803377030039
  Charge       = 1
  Multiplicity = 1
  Basis Set: 6-31G*
    Blend: 6-31G*
  Basis Set: (6-31G* AUX)
    Blend: CC-PVDZ-JKFIT

    Orbital Energies [Eh]
    ---------------------

    Doubly Occupied:

       1A    -20.644656     2A    -20.626507     3A    -20.587189
       4A    -20.582845     5A    -15.845069     6A    -15.701433
       7A    -15.700609     8A    -15.660487     9A    -15.633516
      10A    -11.459281    11A    -11.438752    12A    -11.437931
      13A    -11.437831    14A    -11.421671    15A    -11.415888
      16A    -11.398141    17A    -11.395762    18A    -11.393477
      19A    -11.363623    20A    -11.361269    21A    -11.347088
      22A    -11.344617    23A    -11.338590    24A    -11.318920
      25A    -11.307184    26A    -11.299903    27A    -11.299848
      28A    -11.298559    29A    -11.297161    30A    -11.295723
      31A    -11.295317    32A    -11.295215    33A    -11.294524
      34A    -11.293004    35A    -11.292756    36A    -11.291871
      37A    -11.288922    38A    -11.288809    39A    -11.287912
      40A    -11.285829    41A     -1.489559    42A     -1.487119
      43A     -1.476693    44A     -1.433180    45A     -1.384168
      46A     -1.370403    47A     -1.350280    48A     -1.331656
      49A     -1.319785    50A     -1.213897    51A     -1.198514
      52A     -1.197885    53A     -1.196814    54A     -1.177046
      55A     -1.138984    56A     -1.107206    57A     -1.089325
      58A     -1.084090    59A     -1.078452    60A     -1.071756
      61A     -1.067033    62A     -1.059235    63A     -1.043988
      64A     -1.039699    65A     -1.029198    66A     -1.001762
      67A     -0.962874    68A     -0.948324    69A     -0.910372
      70A     -0.904043    71A     -0.900589    72A     -0.888866
      73A     -0.878983    74A     -0.874993    75A     -0.857155
      76A     -0.852424    77A     -0.834010    78A     -0.830412
      79A     -0.818470    80A     -0.810727    81A     -0.799079
      82A     -0.782898    83A     -0.779702    84A     -0.775300
      85A     -0.762350    86A     -0.757609    87A     -0.754472
      88A     -0.747063    89A     -0.744420    90A     -0.734590
      91A     -0.727950    92A     -0.726470    93A     -0.724527
      94A     -0.718341    95A     -0.711275    96A     -0.701149
      97A     -0.700450    98A     -0.694369    99A     -0.690788
     100A     -0.689572   101A     -0.683620   102A     -0.676880
     103A     -0.669678   104A     -0.667406   105A     -0.662131
     106A     -0.660205   107A     -0.658863   108A     -0.655354
     109A     -0.649956   110A     -0.649079   111A     -0.642775
     112A     -0.638435   113A     -0.634240   114A     -0.630790
     115A     -0.626578   116A     -0.621517   117A     -0.616666
     118A     -0.601959   119A     -0.593399   120A     -0.591361
     121A     -0.585302   122A     -0.565025   123A     -0.563116
     124A     -0.556876   125A     -0.554769   126A     -0.553243
     127A     -0.548773   128A     -0.542051   129A     -0.539938
     130A     -0.525830   131A     -0.496121   132A     -0.489742
     133A     -0.487373   134A     -0.484639   135A     -0.480242
     136A     -0.471812   137A     -0.451342   138A     -0.401687
     139A     -0.394774   140A     -0.386013   141A     -0.367309
     142A     -0.357334   143A     -0.330261

  @DF-RHF Final Energy: -1765.21396195984653

   => Energetics <=

    Nuclear Repulsion Energy =           4233.7557313120887557
    One-Electron Energy =              -10808.0103859046012076
    Two-Electron Energy =                4809.0406926326659232
    Total Energy =                      -1765.2139619598465288

  Dipole Moment: [D]
     X:   -38.3308      Y:    -0.7789      Z:    -0.9568     Total:    38.3507

  Basis Set: (6-31G* AUX)
    Blend: CC-PVDZ-RI
    Molecular point group: c1
  Basis Set: 6-31G*
    Blend: 6-31G*
  Basis Set: (6-31G* AUX)
    Blend: CC-PVDZ-JKFIT
  Basis Set: (6-31G* AUX)
    Blend: CC-PVDZ-JKFIT
	 Reference Energy          =   -1765.2139619598465288 [Eh]
	 Singles Energy            =      -0.0000000000000000 [Eh]
	 Same-Spin Energy          =      -1.5285950120064047 [Eh]
	 Opposite-Spin Energy      =      -4.1425620343858256 [Eh]
	 Correlation Energy        =      -5.6711570463922305 [Eh]
	 Total Energy              =   -1770.8851190062387104 [Eh]

	 ================> DF-SCS-MP2 Energies <==================
	-----------------------------------------------------------
	 SCS Same-Spin Scale       =       0.3333333333333333 [-]
	 SCS Opposite-Spin Scale   =       1.2000000000000000 [-]
	 SCS Same-Spin Energy      =      -0.5095316706688016 [Eh]
	 SCS Opposite-Spin Energy  =      -4.9710744412629904 [Eh]
	 SCS Correlation Energy    =      -5.4806061119317917 [Eh]
	 SCS Total Energy          =   -1770.6945680717783489 [Eh]
	-----------------------------------------------------------

  -Total Gradient:
     Atom            X                  Y                   Z
    ------   -----------------  -----------------  -----------------
       1       -0.004013423358     0.003062005541    -0.009432651340
       2       -0.000022776013     0.000019091296     0.000026023894
       3       -0.000095406847    -0.001176014437     0.003615342193
       4        0.003151211522     0.004101231961    -0.001245248318
       5       -0.003559405548    -0.005897315772    -0.001732604761
       6        0.000011164062     0.000012551269    -0.000013022192
       7        0.004024952411     0.005946457396     0.004787367914
       8        0.000294333736     0.000518476924     0.000155579929
       9        0.000008367344    -0.000030748625    -0.000020822181
      10       -0.000004441032    -0.000018001386    -0.000017353494
      11        0.005216337068     0.001743158428     0.000820270056
      12        0.000012360570     0.000021434891     0.000009870619
      13        0.000089961111     0.000217456619     0.000073960047
      14       -0.002948006329    -0.000254324046    -0.000282959683
      15        0.000000409569     0.000011640860    -0.000007711100
      16        0.000927665320    -0.004636605770     0.005123680613
      17       -0.000001509066    -0.000014403699    -0.000006149609
      18       -0.000000552063    -0.000002621897     0.000005225209
      19        0.000132238286    -0.000466593136     0.000610730680
      20        0.000005256255     0.000029949668     0.000004984057
      21       -0.000001076545     0.000003519879    -0.000004543279
      22        0.000395445849    -0.001617296584     0.002518605575
      23        0.000000986063    -0.000002201344    -0.000016953916
      24       -0.000531197807     0.002686569244    -0.004983255987
      25        0.000019297659     0.000108886410    -0.002678056906
      26        0.002716810033     0.000791478016    -0.003501898655
      27       -0.001195171975    -0.001739623183     0.003902757231
      28       -0.002219433484    -0.002844591828     0.000867493799
      29       -0.000006370180    -0.000006293764    -0.000037537975
      30        0.000813301931     0.002733282750    -0.000148185137
      31        0.000000250784    -0.000018482289     0.000004295481
      32       -0.000709337951    -0.002998599985    -0.002365849553
      33       -0.000008812885    -0.000018105620    -0.000011717989
      34       -0.000444616284    -0.001072319319    -0.000406471863
      35       -0.001261532762     0.000437673072    -0.000863396296
      36       -0.000038538286    -0.000017606514     0.000008477010
      37        0.000015266231     0.000020679675     0.000007498558
      38        0.000678910822     0.000898333596     0.000571657935
      39       -0.000026253590     0.000000329001    -0.000016574468
      40       -0.000938956964    -0.002950014574     0.000687999539
      41        0.000838361551     0.003267548673     0.001846210584
      42        0.000002853682     0.000002833033     0.000003848437
      43       -0.000014197763    -0.000005598085    -0.000031078439
      44       -0.000000866702    -0.000005130133    -0.000006160423
      45       -0.000001933927    -0.000004981885    -0.000002496031
      46        0.000003046978    -0.000005319009    -0.000001490514
      47        0.000003201186    -0.000003230795     0.000000605686
      48        0.000001107036     0.000000922103    -0.000000694714
      49       -0.000000402948     0.000002672863    -0.000000233670
      50       -0.000015474030    -0.000002112955     0.000010845528
      51        0.000001830110    -0.000001879555     0.000001557292
      52        0.000001513480    -0.000000676887    -0.000000265776
      53       -0.000000459106     0.000007374314     0.000002250914
      54       -0.000007322307     0.000000856533    -0.000003421022
      55       -0.002252209436    -0.000334844666     0.001518664488
      56       -0.000006614702    -0.000004803173    -0.000000727087
      57       -0.000015774603     0.000006571259     0.000002004931
      58        0.000002538393    -0.000006634589    -0.000007062740
      59       -0.000011759660     0.000002031536    -0.000001241381
      60       -0.000002864616    -0.000004373200    -0.000009432107
      61        0.000001499617    -0.000005321184    -0.000010193438
      62       -0.000005558341    -0.000005967017     0.000003527859
      63        0.000006000228    -0.000012453899    -0.000000472929
      64        0.000008214085    -0.000009740222    -0.000001566124
      65       -0.000000548235     0.000005603326    -0.000000283288
      66        0.000006470883    -0.000000261427    -0.000000935685
      67       -0.000003400779     0.000011922931     0.000010379510
      68        0.000000185218     0.000002554090     0.000018855226
      69       -0.000016208664     0.000005388217     0.000000094956
      70        0.000005993417     0.000001584141     0.000004792927
      71        0.000964756353    -0.000454325296     0.000640996241
      72       -0.000003916920    -0.000004766205     0.000002444958
      73       -0.000001371280    -0.000005314735     0.000009386780
      74        0.000025604125    -0.000022570818    -0.000007566584

  **** Optimization is complete! (in 1 steps) ****
    Final optimized geometry and variables:
    Molecular point group: c1

    Geometry (in Angstrom), charge = 1, multiplicity = 1:

    N            1.222140858082     1.192158561459     1.178331490527
    N            4.167388667351    -1.248676273140     2.956171436156
    N           -3.911617145246    -1.003587244425     0.213998925645
    N           -7.538697781257    -0.085105392812     0.050314743846
    C            3.274053977909    -0.069879698420     1.211261009112
    C            4.596191145348    -0.551363183765     0.823639514286
    C            2.356176129779     0.682968997227     0.532301325602
    C            3.074425284938    -0.469714162406     2.634311837729
    C            5.100019072943    -1.284444658101     1.921106256583
    C            5.383264283969    -0.421474489764    -0.318746010349
    C            2.463060217810     1.017272894084    -0.897955778013
    C            6.348174096874    -1.893569038940     1.902215222481
    C            6.644094580945    -1.025839694263    -0.344444866466
    C            2.642095044454     0.021450152718    -1.869090853296
    C            2.301500847397     2.351594849989    -1.294682247029
    C           -0.044317054886     0.619801844586     0.894439316089
    C            2.712921778899     0.364995532601    -3.216714636906
    C            2.379724956752     2.690172748816    -2.643832371227
    C           -0.217532651927    -0.491702017125     0.067108170501
    C           -1.173849291718     1.207806112187     1.476342588192
    C            2.583284579501     1.699810617408    -3.606306818380
    C           -1.492326713235    -1.003847894493    -0.163510795361
    C           -2.443166545814     0.686559921076     1.270933835686
    C           -2.621850827254    -0.400458439100     0.400616177061
    C           -5.050947053381    -0.252815831313     0.209786387033
    C           -3.926268527202    -2.428330880278    -0.119526289566
    C           -6.394763932795    -0.982359724321     0.008137419575
    C           -7.816837139114     0.517683619787     1.350260326215
    C           -7.576237216589     0.920417306769    -1.012234012445
    C           -9.323115878629     0.829640331032     1.385567233583
    C           -8.870088314614     1.729823217905    -0.834457105705
    C          -11.262978042429     1.304852055595    -0.124819274011
    C            7.120413152058    -1.763018624366     0.750179799737
    C            7.440067156501    -0.863856789222    -1.588283417881
    C            9.495253036016    -1.302072493427    -2.653638447358
    O            2.148733947397    -0.187914731051     3.404700654260
    O           -5.076874895405     0.971777000349     0.399290552842
    O            8.668399107622    -1.423047941353    -1.479199458388
    O            7.041943462866    -0.289030887454    -2.590515058057
    N           -9.826811229121     0.888455047988    -0.033835833128
    H          -11.418212269759     1.865095603234    -1.045144173373
    H            5.061321053400     0.145493175936    -1.185130407718
    H            1.364994854950     1.167390411538     2.194692885112
    H            4.314510418508    -1.597090639368     3.896793987548
    H            6.715707363168    -2.454517759926     2.757990653988
    H            2.755385854966    -1.015942232170    -1.559934460599
    H            2.131277622270     3.111831645313    -0.537031586057
    H            2.862067555173    -0.408961825555    -3.965087955892
    H            2.276966247855     3.729145542518    -2.946408705779
    H            0.641546091907    -0.993384899578    -0.363762448719
    H           -1.043297575094     2.069141924407     2.127205750565
    H            2.646123957098     1.967294674016    -4.657843734047
    H           -1.581865191130    -1.861837029376    -0.820377111734
    H           -3.293246305138     1.152304291126     1.748900502603
    H           -3.343518404624    -2.974509437430     0.624839632211
    H           -6.543562474663    -1.745161015904     0.780425275861
    H           -7.216104728965     1.417063382442     1.530193163014
    H           -7.592672572044     0.391923932082    -1.972085762526
    H           -9.543558444062     1.795510341325     1.845349326269
    H           -9.335737746599     1.975293837694    -1.790363567137
    H          -11.896537688142     0.419577007817    -0.092741502257
    H           -3.521404018996    -2.612989543136    -1.117012142284
    H           -6.418057221749    -1.496261926059    -0.960614726010
    H           -7.576075897314    -0.198973013811     2.139214010562
    H           -6.715923274407     1.596964056265    -0.997376986498
    H           -9.904080952390     0.053385740436     1.889879396770
    H           -8.720205773500     2.653478379874    -0.270533018410
    H          -11.492726201491     1.954615003911     0.718708441800
    H           -4.940517488533    -2.816806237172    -0.089850378994
    H            8.100637887578    -2.224806544625     0.698048271158
    H            9.969718858139    -0.319411418428    -2.670915410531
    H           10.250315374010    -2.079258011629    -2.553194733831
    H            8.901871553865    -1.443103263077    -3.555712712677
    H           -9.697945205178    -0.070630415493    -0.390744570169

*** Psi4 exiting successfully. Buy a developer a beer!
