                               Psi4 1.3.2 release

  ==> Input File <==

--------------------------------------------------------------------------
molecule {
1 1
N 1.222140858082 1.192158561459 1.178331490527
N 4.167388667351 -1.248676273140 2.956171436156
N -3.911617145246 -1.003587244425 0.213998925645
N -7.538697781257 -0.085105392812 0.050314743846
C 3.274053977909 -0.069879698420 1.211261009112
C 4.596191145348 -0.551363183765 0.823639514286
C 2.356176129779 0.682968997227 0.532301325602
C 3.074425284938 -0.469714162406 2.634311837729
C 5.100019072943 -1.284444658101 1.921106256583
C 5.383264283969 -0.421474489764 -0.318746010349
C 2.463060217810 1.017272894084 -0.897955778013
C 6.348174096874 -1.893569038940 1.902215222481
C 6.644094580945 -1.025839694263 -0.344444866466
C 2.642095044454 0.021450152718 -1.869090853296
C 2.301500847397 2.351594849989 -1.294682247029
C -0.044317054886 0.619801844586 0.894439316089
C 2.712921778899 0.364995532601 -3.216714636906
C 2.379724956752 2.690172748816 -2.643832371227
C -0.217532651927 -0.491702017125 0.067108170501
C -1.173849291718 1.207806112187 1.476342588192
C 2.583284579501 1.699810617408 -3.606306818380
C -1.492326713235 -1.003847894493 -0.163510795361
C -2.443166545814 0.686559921076 1.270933835686
C -2.621850827254 -0.400458439100 0.400616177061
C -5.050947053381 -0.252815831313 0.209786387033
C -3.926268527202 -2.428330880278 -0.119526289566
C -6.394763932795 -0.982359724321 0.008137419575
C -7.816837139114 0.517683619787 1.350260326215
C -7.576237216589 0.920417306769 -1.012234012445
C -9.323115878629 0.829640331032 1.385567233583
C -8.870088314614 1.729823217905 -0.834457105705
C -11.262978042429 1.304852055595 -0.124819274011
C 7.120413152058 -1.763018624366 0.750179799737
C 7.440067156501 -0.863856789222 -1.588283417881
C 9.495253036016 -1.302072493427 -2.653638447358
O 2.148733947397 -0.187914731051 3.404700654260
O -5.076874895405 0.971777000349 0.399290552842
O 8.668399107622 -1.423047941353 -1.479199458388
O 7.041943462866 -0.289030887454 -2.590515058057
N -9.826811229121 0.888455047988 -0.033835833128
H -11.418212269759 1.865095603234 -1.045144173373
H 5.061321053400 0.145493175936 -1.185130407718
H 1.364994854950 1.167390411538 2.194692885112
H 4.314510418508 -1.597090639368 3.896793987548
H 6.715707363168 -2.454517759926 2.757990653988
H 2.755385854966 -1.015942232170 -1.559934460599
H 2.131277622270 3.111831645313 -0.537031586057
H 2.862067555173 -0.408961825555 -3.965087955892
H 2.276966247855 3.729145542518 -2.946408705779
H 0.641546091907 -0.993384899578 -0.363762448719
H -1.043297575094 2.069141924407 2.127205750565
H 2.646123957098 1.967294674016 -4.657843734047
H -1.581865191130 -1.861837029376 -0.820377111734
H -3.293246305138 1.152304291126 1.748900502603
H -3.343518404624 -2.974509437430 0.624839632211
H -6.543562474663 -1.745161015904 0.780425275861
H -7.216104728965 1.417063382442 1.530193163014
H -7.592672572044 0.391923932082 -1.972085762526
H -9.543558444062 1.795510341325 1.845349326269
H -9.335737746599 1.975293837694 -1.790363567137
H -11.896537688142 0.419577007817 -0.092741502257
H -3.521404018996 -2.612989543136 -1.117012142284
H -6.418057221749 -1.496261926059 -0.960614726010
H -7.576075897314 -0.198973013811 2.139214010562
H -6.715923274407 1.596964056265 -0.997376986498
H -9.904080952390 0.053385740436 1.889879396770
H -8.720205773500 2.653478379874 -0.270533018410
H -11.492726201491 1.954615003911 0.718708441800
H -4.940517488533 -2.816806237172 -0.089850378994
H 8.100637887578 -2.224806544625 0.698048271158
H 9.969718858139 -0.319411418428 -2.670915410531
H 10.250315374010 -2.079258011629 -2.553194733831
H 8.901871553865 -1.443103263077 -3.555712712677
H -9.697945205178 -0.070630415493 -0.390744570169
}
memory 200GB
set_num_threads(12)
psi4_io.set_default_path("/scratch/eew947/Psi4-farH_in17")
set freeze_core True
set PROPERTIES_ORIGIN ["COM"]
set cubeprop_tasks ['esp']
E, wfn = properties('mp2/6-311G**',properties=['dipole'],return_wfn=True)
cubeprop(wfn)
fchk(wfn, "farH_in17-dma.fchk")
clean()
--------------------------------------------------------------------------

    Molecular point group: c1
  Charge       = 1
  Multiplicity = 1
  Basis Set: 6-311G**
    Blend: 6-311G**
  Basis Set: (6-311G** AUX)
    Blend: CC-PVTZ-JKFIT

    Orbital Energies [Eh]
    ---------------------

    Doubly Occupied:

       1A    -20.634835     2A    -20.614695     3A    -20.576984
       4A    -20.572066     5A    -15.836280     6A    -15.694421
       7A    -15.693456     8A    -15.655874     9A    -15.629097
      10A    -11.457667    11A    -11.436522    12A    -11.435607
      13A    -11.435388    14A    -11.420586    15A    -11.416422
      16A    -11.396867    17A    -11.394430    18A    -11.393444
      19A    -11.365559    20A    -11.360945    21A    -11.348055
      22A    -11.346624    23A    -11.339778    24A    -11.318905
      25A    -11.307047    26A    -11.301589    27A    -11.300150
      28A    -11.299195    29A    -11.298611    30A    -11.297117
      31A    -11.296117    32A    -11.295927    33A    -11.295234
      34A    -11.294030    35A    -11.293132    36A    -11.292569
      37A    -11.289689    38A    -11.289309    39A    -11.288770
      40A    -11.287278    41A     -1.489830    42A     -1.487499
      43A     -1.478525    44A     -1.436764    45A     -1.387184
      46A     -1.370498    47A     -1.352224    48A     -1.335191
      49A     -1.323112    50A     -1.217927    51A     -1.202166
      52A     -1.200883    53A     -1.196594    54A     -1.176026
      55A     -1.142781    56A     -1.107334    57A     -1.092782
      58A     -1.087185    59A     -1.082177    60A     -1.073992
      61A     -1.070690    62A     -1.059681    63A     -1.046370
      64A     -1.039082    65A     -1.031629    66A     -1.003935
      67A     -0.965904    68A     -0.948622    69A     -0.913051
      70A     -0.907073    71A     -0.903701    72A     -0.892929
      73A     -0.881126    74A     -0.876310    75A     -0.860912
      76A     -0.852645    77A     -0.833471    78A     -0.831113
      79A     -0.821647    80A     -0.814157    81A     -0.800343
      82A     -0.786993    83A     -0.780544    84A     -0.777994
      85A     -0.764964    86A     -0.758209    87A     -0.755083
      88A     -0.749220    89A     -0.747419    90A     -0.735216
      91A     -0.729021    92A     -0.727239    93A     -0.723472
      94A     -0.721029    95A     -0.714775    96A     -0.702960
      97A     -0.702609    98A     -0.698794    99A     -0.693853
     100A     -0.691901   101A     -0.684296   102A     -0.679505
     103A     -0.671755   104A     -0.670515   105A     -0.665825
     106A     -0.664385   107A     -0.659729   108A     -0.658856
     109A     -0.653605   110A     -0.652930   111A     -0.644356
     112A     -0.642167   113A     -0.637351   114A     -0.631927
     115A     -0.626643   116A     -0.624875   117A     -0.618790
     118A     -0.605582   119A     -0.596875   120A     -0.594462
     121A     -0.588760   122A     -0.568319   123A     -0.566348
     124A     -0.560795   125A     -0.558787   126A     -0.557011
     127A     -0.552414   128A     -0.545954   129A     -0.543182
     130A     -0.529798   131A     -0.499892   132A     -0.493310
     133A     -0.491482   134A     -0.487870   135A     -0.484478
     136A     -0.476622   137A     -0.455856   138A     -0.405807
     139A     -0.399005   140A     -0.390499   141A     -0.371753
     142A     -0.361355   143A     -0.334979

  @DF-RHF Final Energy: -1765.61353461378121

   => Energetics <=

    Nuclear Repulsion Energy =           4233.7557313120705658
    One-Electron Energy =              -10808.4078674775610125
    Two-Electron Energy =                4809.0386015517096894
    Total Energy =                      -1765.6135346137807574
  Basis Set: (6-311G** AUX)
    Blend: CC-PVTZ-RI
    Molecular point group: c1

    Geometry (in Angstrom), charge = 1, multiplicity = 1:

       Center              X                  Y                   Z               Mass
    ------------   -----------------  -----------------  -----------------  -----------------
         N            1.222140858082     1.192158561459     1.178331490527    14.003074004430
         N            4.167388667351    -1.248676273140     2.956171436156    14.003074004430
         N           -3.911617145246    -1.003587244425     0.213998925645    14.003074004430
         N           -7.538697781257    -0.085105392812     0.050314743846    14.003074004430
         C            3.274053977909    -0.069879698420     1.211261009112    12.000000000000
         C            4.596191145348    -0.551363183765     0.823639514286    12.000000000000
         C            2.356176129779     0.682968997227     0.532301325602    12.000000000000
         C            3.074425284938    -0.469714162406     2.634311837729    12.000000000000
         C            5.100019072943    -1.284444658101     1.921106256583    12.000000000000
         C            5.383264283969    -0.421474489764    -0.318746010349    12.000000000000
         C            2.463060217810     1.017272894084    -0.897955778013    12.000000000000
         C            6.348174096874    -1.893569038940     1.902215222481    12.000000000000
         C            6.644094580945    -1.025839694263    -0.344444866466    12.000000000000
         C            2.642095044454     0.021450152718    -1.869090853296    12.000000000000
         C            2.301500847397     2.351594849989    -1.294682247029    12.000000000000
         C           -0.044317054886     0.619801844586     0.894439316089    12.000000000000
         C            2.712921778899     0.364995532601    -3.216714636906    12.000000000000
         C            2.379724956752     2.690172748816    -2.643832371227    12.000000000000
         C           -0.217532651927    -0.491702017125     0.067108170501    12.000000000000
         C           -1.173849291718     1.207806112187     1.476342588192    12.000000000000
         C            2.583284579501     1.699810617408    -3.606306818380    12.000000000000
         C           -1.492326713235    -1.003847894493    -0.163510795361    12.000000000000
         C           -2.443166545814     0.686559921076     1.270933835686    12.000000000000
         C           -2.621850827254    -0.400458439100     0.400616177061    12.000000000000
         C           -5.050947053381    -0.252815831313     0.209786387033    12.000000000000
         C           -3.926268527202    -2.428330880278    -0.119526289566    12.000000000000
         C           -6.394763932795    -0.982359724321     0.008137419575    12.000000000000
         C           -7.816837139114     0.517683619787     1.350260326215    12.000000000000
         C           -7.576237216589     0.920417306769    -1.012234012445    12.000000000000
         C           -9.323115878629     0.829640331032     1.385567233583    12.000000000000
         C           -8.870088314614     1.729823217905    -0.834457105705    12.000000000000
         C          -11.262978042429     1.304852055595    -0.124819274011    12.000000000000
         C            7.120413152058    -1.763018624366     0.750179799737    12.000000000000
         C            7.440067156501    -0.863856789222    -1.588283417881    12.000000000000
         C            9.495253036016    -1.302072493427    -2.653638447358    12.000000000000
         O            2.148733947397    -0.187914731051     3.404700654260    15.994914619570
         O           -5.076874895405     0.971777000349     0.399290552842    15.994914619570
         O            8.668399107622    -1.423047941353    -1.479199458388    15.994914619570
         O            7.041943462866    -0.289030887454    -2.590515058057    15.994914619570
         N           -9.826811229121     0.888455047988    -0.033835833128    14.003074004430
         H          -11.418212269759     1.865095603234    -1.045144173373     1.007825032230
         H            5.061321053400     0.145493175936    -1.185130407718     1.007825032230
         H            1.364994854950     1.167390411538     2.194692885112     1.007825032230
         H            4.314510418508    -1.597090639368     3.896793987548     1.007825032230
         H            6.715707363168    -2.454517759926     2.757990653988     1.007825032230
         H            2.755385854966    -1.015942232170    -1.559934460599     1.007825032230
         H            2.131277622270     3.111831645313    -0.537031586057     1.007825032230
         H            2.862067555173    -0.408961825555    -3.965087955892     1.007825032230
         H            2.276966247855     3.729145542518    -2.946408705779     1.007825032230
         H            0.641546091907    -0.993384899578    -0.363762448719     1.007825032230
         H           -1.043297575094     2.069141924407     2.127205750565     1.007825032230
         H            2.646123957098     1.967294674016    -4.657843734047     1.007825032230
         H           -1.581865191130    -1.861837029376    -0.820377111734     1.007825032230
         H           -3.293246305138     1.152304291126     1.748900502603     1.007825032230
         H           -3.343518404624    -2.974509437430     0.624839632211     1.007825032230
         H           -6.543562474663    -1.745161015904     0.780425275861     1.007825032230
         H           -7.216104728965     1.417063382442     1.530193163014     1.007825032230
         H           -7.592672572044     0.391923932082    -1.972085762526     1.007825032230
         H           -9.543558444062     1.795510341325     1.845349326269     1.007825032230
         H           -9.335737746599     1.975293837694    -1.790363567137     1.007825032230
         H          -11.896537688142     0.419577007817    -0.092741502257     1.007825032230
         H           -3.521404018996    -2.612989543136    -1.117012142284     1.007825032230
         H           -6.418057221749    -1.496261926059    -0.960614726010     1.007825032230
         H           -7.576075897314    -0.198973013811     2.139214010562     1.007825032230
         H           -6.715923274407     1.596964056265    -0.997376986498     1.007825032230
         H           -9.904080952390     0.053385740436     1.889879396770     1.007825032230
         H           -8.720205773500     2.653478379874    -0.270533018410     1.007825032230
         H          -11.492726201491     1.954615003911     0.718708441800     1.007825032230
         H           -4.940517488533    -2.816806237172    -0.089850378994     1.007825032230
         H            8.100637887578    -2.224806544625     0.698048271158     1.007825032230
         H            9.969718858139    -0.319411418428    -2.670915410531     1.007825032230
         H           10.250315374010    -2.079258011629    -2.553194733831     1.007825032230
         H            8.901871553865    -1.443103263077    -3.555712712677     1.007825032230
         H           -9.697945205178    -0.070630415493    -0.390744570169     1.007825032230

  Basis Set: 6-311G**
    Blend: 6-311G**
  Basis Set: (6-311G** AUX)
    Blend: CC-PVTZ-JKFIT
	 Reference Energy          =   -1765.6135346137812121 [Eh]
	 Singles Energy            =      -0.0000000000000000 [Eh]
	 Same-Spin Energy          =      -1.5937896880846085 [Eh]
	 Opposite-Spin Energy      =      -4.3850533572714223 [Eh]
	 Correlation Energy        =      -5.9788430453560313 [Eh]
	 Total Energy              =   -1771.5923776591373553 [Eh]

	 ================> DF-SCS-MP2 Energies <==================
	-----------------------------------------------------------
	 SCS Same-Spin Scale       =       0.3333333333333333 [-]
	 SCS Opposite-Spin Scale   =       1.2000000000000000 [-]
	 SCS Same-Spin Energy      =      -0.5312632293615361 [Eh]
	 SCS Opposite-Spin Energy  =      -5.2620640287257068 [Eh]
	 SCS Correlation Energy    =      -5.7933272580872428 [Eh]
	 SCS Total Energy          =   -1771.4068618718683865 [Eh]
	-----------------------------------------------------------

  Dipole Moment: [D]
     X:   -37.6221      Y:    -0.4628      Z:    -0.5607     Total:    37.6291

  Basis Set: 6-311G**
    Blend: 6-311G**
*** Psi4 exiting successfully. Buy a developer a beer!
