                               Psi4 1.3.2 release

  ==> Input File <==

--------------------------------------------------------------------------
molecule {
0 1
C          4.10300        0.54460        1.49040
C          3.32760        1.04510        0.55700
C          3.53340        1.16240       -0.86330
C          3.87280        0.15870       -1.73820
C          5.45820        0.01300        1.45740
N          4.75960       -0.28370        3.57990
C          3.68450        0.32970        2.90270
C          5.83990       -0.47630        2.69740
N          2.01500        1.48570        1.02620
C          3.35530        2.44010       -1.39440
C          4.03720        0.37270       -3.08890
C          3.52170        2.63130       -2.72740
C          3.85900        1.63490       -3.60150
H          4.01560       -0.83530       -1.35160
H          4.76100       -0.55540        4.58480
O          2.58000        0.63820        3.39650
H          2.04670        2.35900        1.59500
H          3.08980        3.27710       -0.76290
H          4.30510       -0.43950       -3.75400
H          3.38170        3.62370       -3.13930
H          3.98460        1.81640       -4.66570
H          6.05830        0.00180        0.61790
H          6.74980       -0.90370        2.93090
H          1.18060        1.00380        0.82430
}
memory 100GB
set_num_threads(12)
psi4_io.set_default_path("/scratch/bdw2292/Psi4-farH_in17")
set maxiter 500
set freeze_core True
set PROPERTIES_ORIGIN ["COM"]
set cubeprop_tasks ['esp']
E, wfn = properties('hf/MINIX',properties=['dipole'],return_wfn=True)
cubeprop(wfn)
fchk(wfn, "farH_in17-esp_frag.fchk")
oeprop(wfn,"WIBERG_LOWDIN_INDICES","MULLIKEN_CHARGES")
clean()
--------------------------------------------------------------------------

    Molecular point group: c1

    Geometry (in Angstrom), charge = 0, multiplicity = 1:

       Center              X                  Y                   Z               Mass
    ------------   -----------------  -----------------  -----------------  -----------------
         C            0.281370635845    -0.286954537840     1.146591401037    12.000000000000
         C           -0.494029364155     0.213545462160     0.213191401037    12.000000000000
         C           -0.288229364155     0.330845462160    -1.207108598963    12.000000000000
         C            0.051170635845    -0.672854537840    -2.082008598963    12.000000000000
         C            1.636570635845    -0.818554537840     1.113591401037    12.000000000000
         N            0.937970635845    -1.115254537840     3.236091401037    14.003074004430
         C           -0.137129364155    -0.501854537840     2.558891401037    12.000000000000
         C            2.018270635845    -1.307854537840     2.353591401037    12.000000000000
         N           -1.806629364155     0.654145462160     0.682391401037    14.003074004430
         C           -0.466329364155     1.608545462160    -1.738208598963    12.000000000000
         C            0.215570635845    -0.458854537840    -3.432708598963    12.000000000000
         C           -0.299929364155     1.799745462160    -3.071208598963    12.000000000000
         C            0.037370635845     0.803345462160    -3.945308598963    12.000000000000
         H            0.193970635845    -1.666854537840    -1.695408598963     1.007825032230
         H            0.939370635845    -1.386954537840     4.240991401037     1.007825032230
         O           -1.241629364155    -0.193354537840     3.052691401037    15.994914619570
         H           -1.774929364155     1.527445462160     1.251191401037     1.007825032230
         H           -0.731829364155     2.445545462160    -1.106708598963     1.007825032230
         H            0.483470635845    -1.271054537840    -4.097808598963     1.007825032230
         H           -0.439929364155     2.792145462160    -3.483108598963     1.007825032230
         H            0.162970635845     0.984845462160    -5.009508598963     1.007825032230
         H            2.236670635845    -0.829754537840     0.274091401037     1.007825032230
         H            2.928170635845    -1.735254537840     2.587091401037     1.007825032230
         H           -2.641029364155     0.172245462160     0.480491401037     1.007825032230

  Charge       = 0
  Multiplicity = 1
  Basis Set: MINIX
    Blend: MINIX
  Basis Set: (MINIX AUX)
    Blend: DEF2-SVP-JKFIT

    Orbital Energies [Eh]
    ---------------------

    Doubly Occupied:

       1A    -20.292483     2A    -15.448990     3A    -15.338328
       4A    -11.310943     5A    -11.236704     6A    -11.224879
       7A    -11.200244     8A    -11.184960     9A    -11.183973
      10A    -11.183370    11A    -11.182314    12A    -11.181192
      13A    -11.178393    14A    -11.149990    15A     -1.358062
      16A     -1.248971    17A     -1.199193    18A     -1.156366
      19A     -1.056449    20A     -1.042234    21A     -1.032783
      22A     -0.977410    23A     -0.897341    24A     -0.836938
      25A     -0.828905    26A     -0.789818    27A     -0.744629
      28A     -0.703285    29A     -0.689719    30A     -0.659529
      31A     -0.643185    32A     -0.625523    33A     -0.623098
      34A     -0.603131    35A     -0.594679    36A     -0.592279
      37A     -0.578608    38A     -0.564179    39A     -0.538550
      40A     -0.529284    41A     -0.503422    42A     -0.485728
      43A     -0.442766    44A     -0.429511    45A     -0.400572
      46A     -0.362233    47A     -0.361327    48A     -0.343383
      49A     -0.274836

  @DF-RHF Final Energy:  -601.87731962623479

   => Energetics <=

    Nuclear Repulsion Energy =            815.1277156701324884
    One-Electron Energy =               -2435.9806961774297633
    Two-Electron Energy =                1018.9756608810623675
    Total Energy =                       -601.8773196262347938

  Dipole Moment: [D]
     X:     2.0555      Y:    -0.4749      Z:    -0.8050     Total:     2.2580

  Basis Set: MINIX
    Blend: MINIX

  Mulliken Charges: (a.u.)
   Center  Symbol    Alpha    Beta     Spin     Total
       1     C     3.02950  3.02950  0.00000 -0.05900
       2     C     2.93742  2.93742  0.00000  0.12516
       3     C     3.01551  3.01551  0.00000 -0.03101
       4     C     3.06546  3.06546  0.00000 -0.13092
       5     C     3.09114  3.09114  0.00000 -0.18227
       6     N     3.70366  3.70366  0.00000 -0.40733
       7     C     2.80642  2.80642  0.00000  0.38715
       8     C     3.01005  3.01005  0.00000 -0.02011
       9     N     3.75486  3.75486  0.00000 -0.50971
      10     C     3.05940  3.05940  0.00000 -0.11879
      11     C     3.06973  3.06973  0.00000 -0.13946
      12     C     3.07197  3.07197  0.00000 -0.14394
      13     C     3.06862  3.06862  0.00000 -0.13723
      14     H     0.42761  0.42761  0.00000  0.14479
      15     H     0.36130  0.36130  0.00000  0.27740
      16     O     4.20085  4.20085  0.00000 -0.40171
      17     H     0.38188  0.38188  0.00000  0.23624
      18     H     0.42673  0.42673  0.00000  0.14655
      19     H     0.42847  0.42847  0.00000  0.14305
      20     H     0.43006  0.43006  0.00000  0.13988
      21     H     0.42748  0.42748  0.00000  0.14505
      22     H     0.43154  0.43154  0.00000  0.13692
      23     H     0.42138  0.42138  0.00000  0.15723
      24     H     0.37896  0.37896  0.00000  0.24207

   Total alpha = 49.00000, Total beta = 49.00000, Total charge = -0.00000

*** Psi4 exiting successfully. Buy a developer a beer!
