                               Psi4 1.3.2 release

  ==> Input File <==

--------------------------------------------------------------------------
molecule {
0 1
 Cl                 -0.0649832    -0.8758863    -1.3634788
  C                 -0.8615178    -0.1109893     0.0354210
  H                 -1.8997533    -0.4392969     0.0837063
  H                 -0.3333493    -0.4029180     0.9437515
  H                 -0.8158170     0.9717065    -0.0827292
--
0 1
  O                  2.5855932     0.9203184     0.4053964
  H                  2.3025440     0.3552924    -0.3159817
  H                  3.2505327     1.5210992     0.0694355
}
memory 15GB
set_num_threads(4)
psi4_io.set_default_path("/scratch/bdw2292/Psi4-CH3Cl")
set maxiter 500
set freeze_core True
set PROPERTIES_ORIGIN ["COM"]
e_dim= energy('mp2/aug-cc-pV[TQ]Z',bsse_type='cp')

psi4.print_out('CP Energy = %10.6f' % (e_dim))
clean()
--------------------------------------------------------------------------

    Molecular point group: c1
  Charge       = 0
  Multiplicity = 1
  Basis Set: AUG-CC-PVTZ
    Blend: AUG-CC-PVTZ
  Basis Set: (AUG-CC-PVTZ AUX)
    Blend: AUG-CC-PVTZ-JKFIT
  @DF-RHF Final Energy:   -76.06043506913038
    Total Energy =                        -76.0604350691303779
  Basis Set: (AUG-CC-PVTZ AUX)
    Blend: AUG-CC-PVTZ-RI
	 Reference Energy          =     -76.0604350691303779 [Eh]
	 Singles Energy            =      -0.0000000000000000 [Eh]
	 Same-Spin Energy          =      -0.0651071392583957 [Eh]
	 Opposite-Spin Energy      =      -0.2030207639408902 [Eh]
	 Correlation Energy        =      -0.2681279031992859 [Eh]
	 Total Energy              =     -76.3285629723296637 [Eh]
	 SCS Total Energy          =     -76.3257623656122490 [Eh]
    Molecular point group: c1
  Basis Set: AUG-CC-PVQZ
    Blend: AUG-CC-PVQZ
  Basis Set: (AUG-CC-PVQZ AUX)
    Blend: AUG-CC-PVQZ-JKFIT
  @DF-RHF Final Energy:   -76.06582004100352
    Total Energy =                        -76.0658200410035192
  Basis Set: (AUG-CC-PVQZ AUX)
  @DF-RHF Final Energy:   -76.06046769999948
    Total Energy =                        -76.0604676999994780
  @DF-RHF Final Energy:   -76.06583524705735
    Total Energy =                        -76.0658352470573362
  @DF-RHF Final Energy:  -499.14856234990896
    Total Energy =                       -499.1485623499089570
  @DF-RHF Final Energy:  -499.15461008326190
    Total Energy =                       -499.1546100832619004
  @DF-RHF Final Energy:  -499.14852182396709
    Total Energy =                       -499.1485218239670871
  @DF-RHF Final Energy:  -499.15459781079289
    Total Energy =                       -499.1545978107928931
  Multiplicity = 1
  @DF-RHF Final Energy:  -575.21185902540867
    Total Energy =                       -575.2118590254085575
	 Singles Energy            =      -0.0000000000000000 [Eh]
	 Same-Spin Energy          =      -0.1516469048711766 [Eh]
	 Opposite-Spin Energy      =      -0.4989347917774306 [Eh]
	 Correlation Energy        =      -0.6505816966486072 [Eh]
	 Total Energy              =    -575.8624407220572721 [Eh]
	 SCS Total Energy          =    -575.8611297438319525 [Eh]
    Molecular point group: c1

    Geometry (in Angstrom), charge = 0, multiplicity = 1:

       Center              X                  Y                   Z               Mass
    ------------   -----------------  -----------------  -----------------  -----------------
         CL          -0.524809128059    -0.652092627287    -0.774293408962    34.968852682000
         C           -1.321343728059     0.112804372713     0.624606391038    12.000000000000
         H           -2.359579228059    -0.215503227287     0.672891691038     1.007825032230
         H           -0.793175228059    -0.179124327287     1.532936891038     1.007825032230
         H           -1.275642928059     1.195500172713     0.506456191038     1.007825032230
         O            2.125767271941     1.144112072713     0.994581791038    15.994914619570
         H            1.842718071941     0.579086072713     0.273203691038     1.007825032230
         H            2.790706771941     1.744892872713     0.658620891038     1.007825032230

  Charge       = 0
  Multiplicity = 1
  Basis Set: AUG-CC-PVQZ
    Blend: AUG-CC-PVQZ
  Basis Set: (AUG-CC-PVQZ AUX)
    Blend: AUG-CC-PVQZ-JKFIT

    Orbital Energies [Eh]
    ---------------------

    Doubly Occupied:

       1A   -104.830761     2A    -20.558549     3A    -11.290195
       4A    -10.556269     5A     -8.023393     6A     -8.021738
       7A     -8.021714     8A     -1.345960     9A     -1.131940
      10A     -0.915190    11A     -0.720820    12A     -0.616216
      13A     -0.614895    14A     -0.574930    15A     -0.550732
      16A     -0.505636    17A     -0.442596    18A     -0.440611

  @DF-RHF Final Energy:  -575.22327273913982

   => Energetics <=

    Nuclear Repulsion Energy =             98.3317400026965913
    One-Electron Energy =                -988.7857290074407501
    Two-Electron Energy =                 315.2307162656042578
    Total Energy =                       -575.2232727391399294

  Dipole Moment: [D]
     X:    -0.4578      Y:     0.9622      Z:    -0.0742     Total:     1.0682

  Basis Set: (AUG-CC-PVQZ AUX)
    Blend: AUG-CC-PVQZ-RI
	 Reference Energy          =    -575.2232727391398157 [Eh]
	 Singles Energy            =      -0.0000000000000000 [Eh]
	 Same-Spin Energy          =      -0.1563326822564101 [Eh]
	 Opposite-Spin Energy      =      -0.5384433055665717 [Eh]
	 Correlation Energy        =      -0.6947759878229818 [Eh]
	 Total Energy              =    -575.9180487269627520 [Eh]

	 ================> DF-SCS-MP2 Energies <==================
	-----------------------------------------------------------
	 SCS Same-Spin Scale       =       0.3333333333333333 [-]
	 SCS Opposite-Spin Scale   =       1.2000000000000000 [-]
	 SCS Same-Spin Energy      =      -0.0521108940854700 [Eh]
	 SCS Opposite-Spin Energy  =      -0.6461319666798860 [Eh]
	 SCS Correlation Energy    =      -0.6982428607653560 [Eh]
	 SCS Total Energy          =    -575.9215155999052058 [Eh]
	-----------------------------------------------------------

*** Psi4 exiting successfully. Buy a developer a beer!
