                               Psi4 1.3.2 release

  ==> Input File <==

--------------------------------------------------------------------------
molecule {
0 1
 Cl                 -0.0649832    -0.8758863    -1.3634788
  C                 -0.8615178    -0.1109893     0.0354210
  H                 -1.8997533    -0.4392969     0.0837063
  H                 -0.3333493    -0.4029180     0.9437515
  H                 -0.8158170     0.9717065    -0.0827292
--
0 1
  O                  2.0475188     0.6405051     0.1673289
  H                  1.7644696     0.0754791    -0.5540493
  H                  2.7124583     1.2412859    -0.1686320
}
memory 15GB
set_num_threads(4)
psi4_io.set_default_path("/scratch/bdw2292/Psi4-CH3Cl")
set maxiter 500
set freeze_core True
set PROPERTIES_ORIGIN ["COM"]
e_dim= energy('mp2/aug-cc-pV[TQ]Z',bsse_type='cp')

psi4.print_out('CP Energy = %10.6f' % (e_dim))
clean()
--------------------------------------------------------------------------

    Molecular point group: c1
  Charge       = 0
  Multiplicity = 1
  Basis Set: AUG-CC-PVTZ
    Blend: AUG-CC-PVTZ
  Basis Set: (AUG-CC-PVTZ AUX)
    Blend: AUG-CC-PVTZ-JKFIT
  @DF-RHF Final Energy:   -76.06043506663465
    Total Energy =                        -76.0604350666346534
  Basis Set: (AUG-CC-PVTZ AUX)
    Blend: AUG-CC-PVTZ-RI
	 Reference Energy          =     -76.0604350666346534 [Eh]
	 Singles Energy            =      -0.0000000000000000 [Eh]
	 Same-Spin Energy          =      -0.0651071399834777 [Eh]
	 Opposite-Spin Energy      =      -0.2030207664019652 [Eh]
	 Correlation Energy        =      -0.2681279063854428 [Eh]
	 Total Energy              =     -76.3285629730200981 [Eh]
	 SCS Total Energy          =     -76.3257623663115083 [Eh]
    Molecular point group: c1
  Basis Set: AUG-CC-PVQZ
    Blend: AUG-CC-PVQZ
  Basis Set: (AUG-CC-PVQZ AUX)
    Blend: AUG-CC-PVQZ-JKFIT
  @DF-RHF Final Energy:   -76.06582003831116
    Total Energy =                        -76.0658200383111591
  Basis Set: (AUG-CC-PVQZ AUX)
  @DF-RHF Final Energy:   -76.06050543751043
    Total Energy =                        -76.0605054375104288
  @DF-RHF Final Energy:   -76.06584975610875
    Total Energy =                        -76.0658497561087472
  @DF-RHF Final Energy:  -499.14858723887693
    Total Energy =                       -499.1485872388769280
  @DF-RHF Final Energy:  -499.15461624680830
    Total Energy =                       -499.1546162468082457
  @DF-RHF Final Energy:  -499.14852182402058
    Total Energy =                       -499.1485218240205768
  @DF-RHF Final Energy:  -499.15459781080011
    Total Energy =                       -499.1545978108000554
  Multiplicity = 1
  @DF-RHF Final Energy:  -575.20767632485763
    Total Energy =                       -575.2076763248576299
	 Singles Energy            =      -0.0000000000000000 [Eh]
	 Same-Spin Energy          =      -0.1536007808768178 [Eh]
	 Opposite-Spin Energy      =      -0.5010723113955138 [Eh]
	 Correlation Energy        =      -0.6546730922723316 [Eh]
	 Total Energy              =    -575.8623494171299626 [Eh]
	 SCS Total Energy          =    -575.8601633588244795 [Eh]
    Molecular point group: c1

    Geometry (in Angstrom), charge = 0, multiplicity = 1:

       Center              X                  Y                   Z               Mass
    ------------   -----------------  -----------------  -----------------  -----------------
         CL          -0.382300134175    -0.577984080479    -0.711241234953    34.968852682000
         C           -1.178834734175     0.186912919521     0.687658565047    12.000000000000
         H           -2.217070234175    -0.141394680479     0.735943865047     1.007825032230
         H           -0.650666234175    -0.105015780479     1.595989065047     1.007825032230
         H           -1.133133934175     1.269608719521     0.569508365047     1.007825032230
         O            1.730201865825     0.938407319521     0.819566465047    15.994914619570
         H            1.447152665825     0.373381319521     0.098188265047     1.007825032230
         H            2.395141365825     1.539188119521     0.483605565047     1.007825032230

  Charge       = 0
  Multiplicity = 1
  Basis Set: AUG-CC-PVQZ
    Blend: AUG-CC-PVQZ
  Basis Set: (AUG-CC-PVQZ AUX)
    Blend: AUG-CC-PVQZ-JKFIT

    Orbital Energies [Eh]
    ---------------------

    Doubly Occupied:

       1A   -104.833641     2A    -20.549178     3A    -11.288817
       4A    -10.559670     5A     -8.026744     6A     -8.025196
       7A     -8.025104     8A     -1.340624     9A     -1.136079
      10A     -0.915912    11A     -0.720693    12A     -0.614995
      13A     -0.612704    14A     -0.571052    15A     -0.553182
      16A     -0.498747    17A     -0.445897    18A     -0.444039

  @DF-RHF Final Energy:  -575.21904613919412

   => Energetics <=

    Nuclear Repulsion Energy =            106.2600730017899053
    One-Electron Energy =               -1004.6336861200154544
    Two-Electron Energy =                 323.1545669790313582
    Total Energy =                       -575.2190461391942335

  Dipole Moment: [D]
     X:    -0.5954      Y:     0.9321      Z:    -0.0726     Total:     1.1084

  Basis Set: (AUG-CC-PVQZ AUX)
    Blend: AUG-CC-PVQZ-RI
	 Reference Energy          =    -575.2190461391941199 [Eh]
	 Singles Energy            =      -0.0000000000000000 [Eh]
	 Same-Spin Energy          =      -0.1583218639384160 [Eh]
	 Opposite-Spin Energy      =      -0.5405863453004411 [Eh]
	 Correlation Energy        =      -0.6989082092388572 [Eh]
	 Total Energy              =    -575.9179543484329997 [Eh]

	 ================> DF-SCS-MP2 Energies <==================
	-----------------------------------------------------------
	 SCS Same-Spin Scale       =       0.3333333333333333 [-]
	 SCS Opposite-Spin Scale   =       1.2000000000000000 [-]
	 SCS Same-Spin Energy      =      -0.0527739546461387 [Eh]
	 SCS Opposite-Spin Energy  =      -0.6487036143605294 [Eh]
	 SCS Correlation Energy    =      -0.7014775690066680 [Eh]
	 SCS Total Energy          =    -575.9205237082007898 [Eh]
	-----------------------------------------------------------

*** Psi4 exiting successfully. Buy a developer a beer!
