                               Psi4 1.3.2 release

  ==> Input File <==

--------------------------------------------------------------------------
molecule {
0 1
 Cl                  0.4394908    -0.1801125    -0.5551848
  C                 -1.2708923    -0.1638391    -0.0650151
  H                 -1.8543908    -0.7369805    -0.7855537
  H                 -1.3567971    -0.6113388     0.9253055
  H                 -1.6196502     0.8685789    -0.0375069
--
0 1
 Cl                  3.5746025     1.7523703     2.8852779
  C                  1.8054161     1.5851249     2.9893743
  H                  1.4614248     0.9506799     2.1729357
  H                  1.5496237     1.1332583     3.9475036
  H                  1.3523579     2.5731452     2.9110382
}
memory 15GB
set_num_threads(4)
psi4_io.set_default_path("/scratch/bdw2292/Psi4-CH3Cl")
set maxiter 500
set freeze_core True
set PROPERTIES_ORIGIN ["COM"]
e_dim= energy('mp2/aug-cc-pV[TQ]Z',bsse_type='cp')

psi4.print_out('CP Energy = %10.6f' % (e_dim))
clean()
--------------------------------------------------------------------------

    Molecular point group: c1
  Charge       = 0
  Multiplicity = 1
  Basis Set: AUG-CC-PVTZ
    Blend: AUG-CC-PVTZ
  Basis Set: (AUG-CC-PVTZ AUX)
    Blend: AUG-CC-PVTZ-JKFIT
  @DF-RHF Final Energy:  -499.14856763280255
    Total Energy =                       -499.1485676328025534
  Basis Set: (AUG-CC-PVTZ AUX)
    Blend: AUG-CC-PVTZ-RI
	 Reference Energy          =    -499.1485676328025534 [Eh]
	 Singles Energy            =      -0.0000000000000000 [Eh]
	 Same-Spin Energy          =      -0.0856094928488125 [Eh]
	 Opposite-Spin Energy      =      -0.2948772890124517 [Eh]
	 Correlation Energy        =      -0.3804867818612642 [Eh]
	 Total Energy              =    -499.5290544146637899 [Eh]
	 SCS Total Energy          =    -499.5309568772337911 [Eh]
    Molecular point group: c1
  Basis Set: AUG-CC-PVQZ
    Blend: AUG-CC-PVQZ
  Basis Set: (AUG-CC-PVQZ AUX)
    Blend: AUG-CC-PVQZ-JKFIT
  @DF-RHF Final Energy:  -499.15464951354812
    Total Energy =                       -499.1546495135481223
  Basis Set: (AUG-CC-PVQZ AUX)
  @DF-RHF Final Energy:  -499.14858641015667
    Total Energy =                       -499.1485864101566676
  @DF-RHF Final Energy:  -499.15465935829155
    Total Energy =                       -499.1546593582915534
  @DF-RHF Final Energy:  -499.14858858205400
    Total Energy =                       -499.1485885820540034
  @DF-RHF Final Energy:  -499.15463941374617
    Total Energy =                       -499.1546394137461675
  @DF-RHF Final Energy:  -499.14854407761175
    Total Energy =                       -499.1485440776117457
  @DF-RHF Final Energy:  -499.15462769111946
    Total Energy =                       -499.1546276911194582
  Multiplicity = 1
  @DF-RHF Final Energy:  -998.29698897291041
    Total Energy =                       -998.2969889729104125
	 Singles Energy            =      -0.0000000000000000 [Eh]
	 Same-Spin Energy          =      -0.1719986183324689 [Eh]
	 Opposite-Spin Energy      =      -0.5907833452848236 [Eh]
	 Correlation Energy        =      -0.7627819636172924 [Eh]
	 Total Energy              =    -999.0597709365276842 [Eh]
	 SCS Total Energy          =    -999.0632618600296837 [Eh]
    Molecular point group: c1

    Geometry (in Angstrom), charge = 0, multiplicity = 1:

       Center              X                  Y                   Z               Mass
    ------------   -----------------  -----------------  -----------------  -----------------
         CL          -1.023848076108    -0.942684630742    -1.813159697450    34.968852682000
         C           -2.734231176108    -0.926411230742    -1.322989997450    12.000000000000
         H           -3.317729676108    -1.499552630742    -2.043528597450     1.007825032230
         H           -2.820135976108    -1.373910930742    -0.332669397450     1.007825032230
         H           -3.082989076108     0.106006769258    -1.295481797450     1.007825032230
         CL           2.111263623892     0.989798169258     1.627303002550    34.968852682000
         C            0.342077223892     0.822552769258     1.731399402550    12.000000000000
         H           -0.001914076108     0.188107769258     0.914960802550     1.007825032230
         H            0.086284823892     0.370686169258     2.689528702550     1.007825032230
         H           -0.110980976108     1.810573069258     1.653063302550     1.007825032230

  Charge       = 0
  Multiplicity = 1
  Basis Set: AUG-CC-PVQZ
    Blend: AUG-CC-PVQZ
  Basis Set: (AUG-CC-PVQZ AUX)
    Blend: AUG-CC-PVQZ-JKFIT

    Orbital Energies [Eh]
    ---------------------

    Doubly Occupied:

       1A   -104.831729     2A   -104.820017     3A    -11.296830
       4A    -11.284468     5A    -10.557218     6A    -10.545450
       7A     -8.024349     8A     -8.022625     9A     -8.022616
      10A     -8.012588    11A     -8.010868    12A     -8.010864
      13A     -1.135126    14A     -1.122781    15A     -0.920435
      16A     -0.908798    17A     -0.623658    18A     -0.622566
      19A     -0.611045    20A     -0.609796    21A     -0.553999
      22A     -0.542337    23A     -0.443851    24A     -0.442399
      25A     -0.430935    26A     -0.429727

  @DF-RHF Final Energy:  -998.30911815036734

   => Energetics <=

    Nuclear Repulsion Energy =            175.2158638933347277
    One-Electron Energy =               -1725.3758080540326318
    Two-Electron Energy =                 551.8508260103305929
    Total Energy =                       -998.3091181503673397

  Dipole Moment: [D]
     X:    -4.1341      Y:    -0.2649      Z:     0.5022     Total:     4.1729

  Basis Set: (AUG-CC-PVQZ AUX)
    Blend: AUG-CC-PVQZ-RI
	 Reference Energy          =    -998.3091181503673397 [Eh]
	 Singles Energy            =      -0.0000000000000000 [Eh]
	 Same-Spin Energy          =      -0.1772287339572812 [Eh]
	 Opposite-Spin Energy      =      -0.6388261068392871 [Eh]
	 Correlation Energy        =      -0.8160548407965682 [Eh]
	 Total Energy              =    -999.1251729911639359 [Eh]

	 ================> DF-SCS-MP2 Energies <==================
	-----------------------------------------------------------
	 SCS Same-Spin Scale       =       0.3333333333333333 [-]
	 SCS Opposite-Spin Scale   =       1.2000000000000000 [-]
	 SCS Same-Spin Energy      =      -0.0590762446524271 [Eh]
	 SCS Opposite-Spin Energy  =      -0.7665913282071445 [Eh]
	 SCS Correlation Energy    =      -0.8256675728595715 [Eh]
	 SCS Total Energy          =    -999.1347857232268552 [Eh]
	-----------------------------------------------------------

*** Psi4 exiting successfully. Buy a developer a beer!
