                               Psi4 1.3.2 release

  ==> Input File <==

--------------------------------------------------------------------------
molecule {
0 1
 Cl                  0.2237841     0.8067207    -0.4751478
  C                 -1.3125540     0.0215805    -0.0346030
  H                 -1.4593911    -0.8497931    -0.6731564
  H                 -1.2619076    -0.2891343     1.0091662
  H                 -2.1297134     0.7295137    -0.1734769
--
0 1
  O                  2.5676194    -1.4444087     0.8338602
  H                  2.0459742    -2.1098576     1.2810244
  H                  1.9699384    -0.7971810     0.4551233
}
memory 15GB
set_num_threads(4)
psi4_io.set_default_path("/scratch/bdw2292/Psi4-CH3Cl")
set maxiter 500
set freeze_core True
set PROPERTIES_ORIGIN ["COM"]
e_dim= energy('mp2/aug-cc-pV[TQ]Z',bsse_type='cp')

psi4.print_out('CP Energy = %10.6f' % (e_dim))
clean()
--------------------------------------------------------------------------

    Molecular point group: c1
  Charge       = 0
  Multiplicity = 1
  Basis Set: AUG-CC-PVTZ
    Blend: AUG-CC-PVTZ
  Basis Set: (AUG-CC-PVTZ AUX)
    Blend: AUG-CC-PVTZ-JKFIT
  @DF-RHF Final Energy:   -76.06043149928450
    Total Energy =                        -76.0604314992845048
  Basis Set: (AUG-CC-PVTZ AUX)
    Blend: AUG-CC-PVTZ-RI
	 Reference Energy          =     -76.0604314992845048 [Eh]
	 Singles Energy            =      -0.0000000000000000 [Eh]
	 Same-Spin Energy          =      -0.0650987975001425 [Eh]
	 Opposite-Spin Energy      =      -0.2029916146574537 [Eh]
	 Correlation Energy        =      -0.2680904121575962 [Eh]
	 Total Energy              =     -76.3285219114420954 [Eh]
	 SCS Total Energy          =     -76.3257210360401643 [Eh]
    Molecular point group: c1
  Basis Set: AUG-CC-PVQZ
    Blend: AUG-CC-PVQZ
  Basis Set: (AUG-CC-PVQZ AUX)
    Blend: AUG-CC-PVQZ-JKFIT
  @DF-RHF Final Energy:   -76.06581790697545
    Total Energy =                        -76.0658179069754681
  Basis Set: (AUG-CC-PVQZ AUX)
  @DF-RHF Final Energy:   -76.06046339709827
    Total Energy =                        -76.0604633970982746
  @DF-RHF Final Energy:   -76.06583063822217
    Total Energy =                        -76.0658306382221525
  @DF-RHF Final Energy:  -499.14858521959832
    Total Energy =                       -499.1485852195983171
  @DF-RHF Final Energy:  -499.15462625685745
    Total Energy =                       -499.1546262568574548
  @DF-RHF Final Energy:  -499.14853352235036
    Total Energy =                       -499.1485335223503625
  @DF-RHF Final Energy:  -499.15461358130619
    Total Energy =                       -499.1546135813061937
  Multiplicity = 1
  @DF-RHF Final Energy:  -575.20994663175168
    Total Energy =                       -575.2099466317516772
	 Singles Energy            =      -0.0000000000000000 [Eh]
	 Same-Spin Energy          =      -0.1519244534780449 [Eh]
	 Opposite-Spin Energy      =      -0.4993640181063614 [Eh]
	 Correlation Energy        =      -0.6512884715844063 [Eh]
	 Total Energy              =    -575.8612351033360710 [Eh]
	 SCS Total Energy          =    -575.8598249379720073 [Eh]
    Molecular point group: c1

    Geometry (in Angstrom), charge = 0, multiplicity = 1:

       Center              X                  Y                   Z               Mass
    ------------   -----------------  -----------------  -----------------  -----------------
         CL          -0.251225755518     0.776965115169    -0.448979076650    34.968852682000
         C           -1.787563855518    -0.008175084831    -0.008434276650    12.000000000000
         H           -1.934400955518    -0.879548684831    -0.646987676650     1.007825032230
         H           -1.736917455518    -0.318889884831     1.035334923350     1.007825032230
         H           -2.604723255518     0.699758115169    -0.147308176650     1.007825032230
         O            2.092609544482    -1.474164284831     0.860028923350    15.994914619570
         H            1.570964344482    -2.139613184831     1.307193123350     1.007825032230
         H            1.494928544482    -0.826936584831     0.481292023350     1.007825032230

  Charge       = 0
  Multiplicity = 1
  Basis Set: AUG-CC-PVQZ
    Blend: AUG-CC-PVQZ
  Basis Set: (AUG-CC-PVQZ AUX)
    Blend: AUG-CC-PVQZ-JKFIT

    Orbital Energies [Eh]
    ---------------------

    Doubly Occupied:

       1A   -104.840931     2A    -20.548094     3A    -11.302989
       4A    -10.566537     5A     -8.033653     6A     -8.031984
       7A     -8.031943     8A     -1.336325     9A     -1.143619
      10A     -0.927659    11A     -0.712191    12A     -0.629327
      13A     -0.628324    14A     -0.566569    15A     -0.560676
      16A     -0.495619    17A     -0.452861    18A     -0.450904

  @DF-RHF Final Energy:  -575.22137095949313

   => Energetics <=

    Nuclear Repulsion Energy =             98.2141157495120751
    One-Electron Energy =                -988.3505527864836040
    Two-Electron Energy =                 314.9150660774783432
    Total Energy =                       -575.2213709594932425

  Dipole Moment: [D]
     X:    -4.0251      Y:    -0.6966      Z:     0.4766     Total:     4.1127

  Basis Set: (AUG-CC-PVQZ AUX)
    Blend: AUG-CC-PVQZ-RI
	 Reference Energy          =    -575.2213709594931288 [Eh]
	 Singles Energy            =      -0.0000000000000000 [Eh]
	 Same-Spin Energy          =      -0.1566077663059952 [Eh]
	 Opposite-Spin Energy      =      -0.5388299028443938 [Eh]
	 Correlation Energy        =      -0.6954376691503890 [Eh]
	 Total Energy              =    -575.9168086286434800 [Eh]

	 ================> DF-SCS-MP2 Energies <==================
	-----------------------------------------------------------
	 SCS Same-Spin Scale       =       0.3333333333333333 [-]
	 SCS Opposite-Spin Scale   =       1.2000000000000000 [-]
	 SCS Same-Spin Energy      =      -0.0522025887686651 [Eh]
	 SCS Opposite-Spin Energy  =      -0.6465958834132726 [Eh]
	 SCS Correlation Energy    =      -0.6987984721819376 [Eh]
	 SCS Total Energy          =    -575.9201694316750491 [Eh]
	-----------------------------------------------------------

*** Psi4 exiting successfully. Buy a developer a beer!
