                               Psi4 1.3.2 release

  ==> Input File <==

--------------------------------------------------------------------------
molecule {
0 1
 Cl                  0.4394908    -0.1801125    -0.5551848
  C                 -1.2708923    -0.1638391    -0.0650151
  H                 -1.8543908    -0.7369805    -0.7855537
  H                 -1.3567971    -0.6113388     0.9253055
  H                 -1.6196502     0.8685789    -0.0375069
--
0 1
 Cl                  3.4816994     1.6495710     2.6372669
  C                  1.7125130     1.4823256     2.7413633
  H                  1.3685217     0.8478806     1.9249248
  H                  1.4567206     1.0304590     3.6994926
  H                  1.2594549     2.4703459     2.6630273
}
memory 15GB
set_num_threads(4)
psi4_io.set_default_path("/scratch/bdw2292/Psi4-CH3Cl")
set maxiter 500
set freeze_core True
set PROPERTIES_ORIGIN ["COM"]
e_dim= energy('mp2/aug-cc-pV[TQ]Z',bsse_type='cp')

psi4.print_out('CP Energy = %10.6f' % (e_dim))
clean()
--------------------------------------------------------------------------

    Molecular point group: c1
  Charge       = 0
  Multiplicity = 1
  Basis Set: AUG-CC-PVTZ
    Blend: AUG-CC-PVTZ
  Basis Set: (AUG-CC-PVTZ AUX)
    Blend: AUG-CC-PVTZ-JKFIT
  @DF-RHF Final Energy:  -499.14856763501342
    Total Energy =                       -499.1485676350134213
  Basis Set: (AUG-CC-PVTZ AUX)
    Blend: AUG-CC-PVTZ-RI
	 Reference Energy          =    -499.1485676350134213 [Eh]
	 Singles Energy            =      -0.0000000000000000 [Eh]
	 Same-Spin Energy          =      -0.0856094927157043 [Eh]
	 Opposite-Spin Energy      =      -0.2948772878311531 [Eh]
	 Correlation Energy        =      -0.3804867805468574 [Eh]
	 Total Energy              =    -499.5290544155602674 [Eh]
	 SCS Total Energy          =    -499.5309568779827032 [Eh]
    Molecular point group: c1
  Basis Set: AUG-CC-PVQZ
    Blend: AUG-CC-PVQZ
  Basis Set: (AUG-CC-PVQZ AUX)
    Blend: AUG-CC-PVQZ-JKFIT
  @DF-RHF Final Energy:  -499.15464951590286
    Total Energy =                       -499.1546495159028609
  Basis Set: (AUG-CC-PVQZ AUX)
  @DF-RHF Final Energy:  -499.14859201579588
    Total Energy =                       -499.1485920157958844
  @DF-RHF Final Energy:  -499.15466128569187
    Total Energy =                       -499.1546612856918728
  @DF-RHF Final Energy:  -499.14859947737949
    Total Energy =                       -499.1485994773794914
  @DF-RHF Final Energy:  -499.15464179204992
    Total Energy =                       -499.1546417920499152
  @DF-RHF Final Energy:  -499.14854407770883
    Total Energy =                       -499.1485440777088343
  @DF-RHF Final Energy:  -499.15462769123462
    Total Energy =                       -499.1546276912346229
  Multiplicity = 1
  @DF-RHF Final Energy:  -998.29636202304710
    Total Energy =                       -998.2963620230470951
	 Singles Energy            =      -0.0000000000000000 [Eh]
	 Same-Spin Energy          =      -0.1724106650349247 [Eh]
	 Opposite-Spin Energy      =      -0.5912997721809896 [Eh]
	 Correlation Energy        =      -0.7637104372159144 [Eh]
	 Total Energy              =    -999.0600724602629725 [Eh]
	 SCS Total Energy          =    -999.0633919713426394 [Eh]
    Molecular point group: c1

    Geometry (in Angstrom), charge = 0, multiplicity = 1:

       Center              X                  Y                   Z               Mass
    ------------   -----------------  -----------------  -----------------  -----------------
         CL          -0.977396527116    -0.891284980742    -1.689154199466    34.968852682000
         C           -2.687779627116    -0.875011580742    -1.198984499466    12.000000000000
         H           -3.271278127116    -1.448152980742    -1.919523099466     1.007825032230
         H           -2.773684427116    -1.322511280742    -0.208663899466     1.007825032230
         H           -3.036537527116     0.157406419258    -1.171476299466     1.007825032230
         CL           2.064812072884     0.938398519258     1.503297500534    34.968852682000
         C            0.295625672884     0.771153119258     1.607393900534    12.000000000000
         H           -0.048365627116     0.136708119258     0.790955400534     1.007825032230
         H            0.039833272884     0.319286519258     2.565523200534     1.007825032230
         H           -0.157432427116     1.759173419258     1.529057900534     1.007825032230

  Charge       = 0
  Multiplicity = 1
  Basis Set: AUG-CC-PVQZ
    Blend: AUG-CC-PVQZ
  Basis Set: (AUG-CC-PVQZ AUX)
    Blend: AUG-CC-PVQZ-JKFIT

    Orbital Energies [Eh]
    ---------------------

    Doubly Occupied:

       1A   -104.832703     2A   -104.819014     3A    -11.297807
       4A    -11.282571     5A    -10.558267     6A    -10.544449
       7A     -8.025391     8A     -8.023674     9A     -8.023659
      10A     -8.011587    11A     -8.009872    12A     -8.009867
      13A     -1.136476    14A     -1.121643    15A     -0.921583
      16A     -0.907548    17A     -0.625655    18A     -0.623610
      19A     -0.609754    20A     -0.608087    21A     -0.555055
      22A     -0.541246    23A     -0.445806    24A     -0.443599
      25A     -0.429957    26A     -0.427714

  @DF-RHF Final Energy:  -998.30848108587577

   => Energetics <=

    Nuclear Repulsion Energy =            179.4191960149153715
    One-Electron Energy =               -1733.7821707733955918
    Two-Electron Energy =                 556.0544936726045080
    Total Energy =                       -998.3084810858757692

  Dipole Moment: [D]
     X:    -4.1591      Y:    -0.2899      Z:     0.4546     Total:     4.1939

  Basis Set: (AUG-CC-PVQZ AUX)
    Blend: AUG-CC-PVQZ-RI
	 Reference Energy          =    -998.3084810858757692 [Eh]
	 Singles Energy            =      -0.0000000000000000 [Eh]
	 Same-Spin Energy          =      -0.1776401044831536 [Eh]
	 Opposite-Spin Energy      =      -0.6392980283856479 [Eh]
	 Correlation Energy        =      -0.8169381328688015 [Eh]
	 Total Energy              =    -999.1254192187445824 [Eh]

	 ================> DF-SCS-MP2 Energies <==================
	-----------------------------------------------------------
	 SCS Same-Spin Scale       =       0.3333333333333333 [-]
	 SCS Opposite-Spin Scale   =       1.2000000000000000 [-]
	 SCS Same-Spin Energy      =      -0.0592133681610512 [Eh]
	 SCS Opposite-Spin Energy  =      -0.7671576340627774 [Eh]
	 SCS Correlation Energy    =      -0.8263710022238285 [Eh]
	 SCS Total Energy          =    -999.1348520880995920 [Eh]
	-----------------------------------------------------------

*** Psi4 exiting successfully. Buy a developer a beer!
