                               Psi4 1.3.2 release

  ==> Input File <==

--------------------------------------------------------------------------
molecule {
0 1
 Cl                  0.2237841     0.8067207    -0.4751478
  C                 -1.3125540     0.0215805    -0.0346030
  H                 -1.4593911    -0.8497931    -0.6731564
  H                 -1.2619076    -0.2891343     1.0091662
  H                 -2.1297134     0.7295137    -0.1734769
--
0 1
  O                  3.0363865    -1.8946346     1.0956618
  H                  2.5147412    -2.5600835     1.5428260
  H                  2.4387055    -1.2474069     0.7169249
}
memory 15GB
set_num_threads(4)
psi4_io.set_default_path("/scratch/bdw2292/Psi4-CH3Cl")
set maxiter 500
set freeze_core True
set PROPERTIES_ORIGIN ["COM"]
e_dim= energy('mp2/aug-cc-pV[TQ]Z',bsse_type='cp')

psi4.print_out('CP Energy = %10.6f' % (e_dim))
clean()
--------------------------------------------------------------------------

    Molecular point group: c1
  Charge       = 0
  Multiplicity = 1
  Basis Set: AUG-CC-PVTZ
    Blend: AUG-CC-PVTZ
  Basis Set: (AUG-CC-PVTZ AUX)
    Blend: AUG-CC-PVTZ-JKFIT
  @DF-RHF Final Energy:   -76.06043149810134
    Total Energy =                        -76.0604314981013374
  Basis Set: (AUG-CC-PVTZ AUX)
    Blend: AUG-CC-PVTZ-RI
	 Reference Energy          =     -76.0604314981013374 [Eh]
	 Singles Energy            =      -0.0000000000000000 [Eh]
	 Same-Spin Energy          =      -0.0650987980525631 [Eh]
	 Opposite-Spin Energy      =      -0.2029916165419614 [Eh]
	 Correlation Energy        =      -0.2680904145945245 [Eh]
	 Total Energy              =     -76.3285219126958623 [Eh]
	 SCS Total Energy          =     -76.3257210373025430 [Eh]
    Molecular point group: c1
  Basis Set: AUG-CC-PVQZ
    Blend: AUG-CC-PVQZ
  Basis Set: (AUG-CC-PVQZ AUX)
    Blend: AUG-CC-PVQZ-JKFIT
  @DF-RHF Final Energy:   -76.06581790564121
    Total Energy =                        -76.0658179056412109
  Basis Set: (AUG-CC-PVQZ AUX)
  @DF-RHF Final Energy:   -76.06044505280445
    Total Energy =                        -76.0604450528044538
  @DF-RHF Final Energy:   -76.06582392226956
    Total Energy =                        -76.0658239222695443
  @DF-RHF Final Energy:  -499.14856176098027
    Total Energy =                       -499.1485617609802716
  @DF-RHF Final Energy:  -499.15462117925853
    Total Energy =                       -499.1546211792585268
  @DF-RHF Final Energy:  -499.14853352243631
    Total Energy =                       -499.1485335224363098
  @DF-RHF Final Energy:  -499.15461358144756
    Total Energy =                       -499.1546135814475633
  Multiplicity = 1
  @DF-RHF Final Energy:  -575.21013112280070
    Total Energy =                       -575.2101311228007035
	 Singles Energy            =      -0.0000000000000000 [Eh]
	 Same-Spin Energy          =      -0.1510888023723261 [Eh]
	 Opposite-Spin Energy      =      -0.4983500470800831 [Eh]
	 Correlation Energy        =      -0.6494388494524093 [Eh]
	 Total Energy              =    -575.8595699722530981 [Eh]
	 SCS Total Energy          =    -575.8585141134209380 [Eh]
    Molecular point group: c1

    Geometry (in Angstrom), charge = 0, multiplicity = 1:

       Center              X                  Y                   Z               Mass
    ------------   -----------------  -----------------  -----------------  -----------------
         CL          -0.375378710926     0.896207435616    -0.518317225079    34.968852682000
         C           -1.911716810926     0.111067235616    -0.077772425079    12.000000000000
         H           -2.058553910926    -0.760306364384    -0.716325825079     1.007825032230
         H           -1.861070410926    -0.199647564384     0.965996774921     1.007825032230
         H           -2.728876210926     0.819000435616    -0.216646325079     1.007825032230
         O            2.437223689074    -1.805147864384     1.052492374921    15.994914619570
         H            1.915578389074    -2.470596764384     1.499656574921     1.007825032230
         H            1.839542689074    -1.157920164384     0.673755474921     1.007825032230

  Charge       = 0
  Multiplicity = 1
  Basis Set: AUG-CC-PVQZ
    Blend: AUG-CC-PVQZ
  Basis Set: (AUG-CC-PVQZ AUX)
    Blend: AUG-CC-PVQZ-JKFIT

    Orbital Energies [Eh]
    ---------------------

    Doubly Occupied:

       1A   -104.835784     2A    -20.555549     3A    -11.299345
       4A    -10.561217     5A     -8.028347     6A     -8.026643
       7A     -8.026628     8A     -1.342604     9A     -1.138118
      10A     -0.923258    11A     -0.717357    12A     -0.625178
      13A     -0.624602    14A     -0.570518    15A     -0.557190
      16A     -0.502047    17A     -0.447194    18A     -0.445914

  @DF-RHF Final Energy:  -575.22157473275990

   => Energetics <=

    Nuclear Repulsion Energy =             92.1882172376937206
    One-Electron Energy =                -976.3645893856534030
    Two-Electron Energy =                 308.9547974151997778
    Total Energy =                       -575.2215747327599047

  Dipole Moment: [D]
     X:    -3.8786      Y:    -0.8117      Z:     0.5466     Total:     4.0001

  Basis Set: (AUG-CC-PVQZ AUX)
    Blend: AUG-CC-PVQZ-RI
	 Reference Energy          =    -575.2215747327599047 [Eh]
	 Singles Energy            =      -0.0000000000000000 [Eh]
	 Same-Spin Energy          =      -0.1557718022697519 [Eh]
	 Opposite-Spin Energy      =      -0.5379038643256830 [Eh]
	 Correlation Energy        =      -0.6936756665954349 [Eh]
	 Total Energy              =    -575.9152503993553864 [Eh]

	 ================> DF-SCS-MP2 Energies <==================
	-----------------------------------------------------------
	 SCS Same-Spin Scale       =       0.3333333333333333 [-]
	 SCS Opposite-Spin Scale   =       1.2000000000000000 [-]
	 SCS Same-Spin Energy      =      -0.0519239340899173 [Eh]
	 SCS Opposite-Spin Energy  =      -0.6454846371908196 [Eh]
	 SCS Correlation Energy    =      -0.6974085712807370 [Eh]
	 SCS Total Energy          =    -575.9189833040406938 [Eh]
	-----------------------------------------------------------

*** Psi4 exiting successfully. Buy a developer a beer!
