                               Psi4 1.3.2 release

  ==> Input File <==

--------------------------------------------------------------------------
molecule {
0 1
 Cl                  0.2237841     0.8067207    -0.4751478
  C                 -1.3125540     0.0215805    -0.0346030
  H                 -1.4593911    -0.8497931    -0.6731564
  H                 -1.2619076    -0.2891343     1.0091662
  H                 -2.1297134     0.7295137    -0.1734769
--
0 1
  O                  2.0988524    -0.9941829     0.5720586
  H                  1.5772071    -1.6596318     1.0192228
  H                  1.5011714    -0.3469552     0.1933218
}
memory 15GB
set_num_threads(4)
psi4_io.set_default_path("/scratch/bdw2292/Psi4-CH3Cl")
set maxiter 500
set freeze_core True
set PROPERTIES_ORIGIN ["COM"]
e_dim= energy('mp2/aug-cc-pV[TQ]Z',bsse_type='cp')

psi4.print_out('CP Energy = %10.6f' % (e_dim))
clean()
--------------------------------------------------------------------------

    Molecular point group: c1
  Charge       = 0
  Multiplicity = 1
  Basis Set: AUG-CC-PVTZ
    Blend: AUG-CC-PVTZ
  Basis Set: (AUG-CC-PVTZ AUX)
    Blend: AUG-CC-PVTZ-JKFIT
  @DF-RHF Final Energy:   -76.06043149993660
    Total Energy =                        -76.0604314999366125
  Basis Set: (AUG-CC-PVTZ AUX)
    Blend: AUG-CC-PVTZ-RI
	 Reference Energy          =     -76.0604314999365982 [Eh]
	 Singles Energy            =      -0.0000000000000000 [Eh]
	 Same-Spin Energy          =      -0.0650987977196898 [Eh]
	 Opposite-Spin Energy      =      -0.2029916154323280 [Eh]
	 Correlation Energy        =      -0.2680904131520178 [Eh]
	 Total Energy              =     -76.3285219130886219 [Eh]
	 SCS Total Energy          =     -76.3257210376952884 [Eh]
    Molecular point group: c1
  Basis Set: AUG-CC-PVQZ
    Blend: AUG-CC-PVQZ
  Basis Set: (AUG-CC-PVQZ AUX)
    Blend: AUG-CC-PVQZ-JKFIT
  @DF-RHF Final Energy:   -76.06581790760573
    Total Energy =                        -76.0658179076057195
  Basis Set: (AUG-CC-PVQZ AUX)
  @DF-RHF Final Energy:   -76.06050398470751
    Total Energy =                        -76.0605039847075091
  @DF-RHF Final Energy:   -76.06584249742036
    Total Energy =                        -76.0658424974203626
  @DF-RHF Final Energy:  -499.14861358485558
    Total Energy =                       -499.1486135848555818
  @DF-RHF Final Energy:  -499.15463404745310
    Total Energy =                       -499.1546340474531007
  @DF-RHF Final Energy:  -499.14853352245439
    Total Energy =                       -499.1485335224543860
  @DF-RHF Final Energy:  -499.15461358133831
    Total Energy =                       -499.1546135813382534
  Multiplicity = 1
  @DF-RHF Final Energy:  -575.19308258066349
    Total Energy =                       -575.1930825806633720
	 Singles Energy            =      -0.0000000000000000 [Eh]
	 Same-Spin Energy          =      -0.1549115338246548 [Eh]
	 Opposite-Spin Energy      =      -0.5025995579251064 [Eh]
	 Correlation Energy        =      -0.6575110917497611 [Eh]
	 Total Energy              =    -575.8505936724131971 [Eh]
	 SCS Total Energy          =    -575.8478392281151628 [Eh]
    Molecular point group: c1

    Geometry (in Angstrom), charge = 0, multiplicity = 1:

       Center              X                  Y                   Z               Mass
    ------------   -----------------  -----------------  -----------------  -----------------
         CL          -0.127072823631     0.657722821207    -0.379640929703    34.968852682000
         C           -1.663410923631    -0.127417378793     0.060903870297    12.000000000000
         H           -1.810248023631    -0.998790978793    -0.577649529703     1.007825032230
         H           -1.612764523631    -0.438132178793     1.104673070297     1.007825032230
         H           -2.480570323631     0.580515821207    -0.077970029703     1.007825032230
         O            1.747995476369    -1.143180778793     0.667565470297    15.994914619570
         H            1.226350176369    -1.808629678793     1.114729670297     1.007825032230
         H            1.150314476369    -0.495953078793     0.288828670297     1.007825032230

  Charge       = 0
  Multiplicity = 1
  Basis Set: AUG-CC-PVQZ
    Blend: AUG-CC-PVQZ
  Basis Set: (AUG-CC-PVQZ AUX)
    Blend: AUG-CC-PVQZ-JKFIT

    Orbital Energies [Eh]
    ---------------------

    Doubly Occupied:

       1A   -104.847344     2A    -20.525207     3A    -11.309683
       4A    -10.574489     5A     -8.041443     6A     -8.040014
       7A     -8.039748     8A     -1.322937     9A     -1.155769
      10A     -0.937846    11A     -0.710415    12A     -0.635835
      13A     -0.635162    14A     -0.571959    15A     -0.554804
      16A     -0.482064    17A     -0.457058    18A     -0.452211

  @DF-RHF Final Energy:  -575.20448249260619

   => Energetics <=

    Nuclear Repulsion Energy =            107.1155223723198162
    One-Electron Energy =               -1006.0520299010368035
    Two-Electron Energy =                 323.7320250361108265
    Total Energy =                       -575.2044824926061892

  Dipole Moment: [D]
     X:    -4.3570      Y:    -0.4413      Z:     0.3224     Total:     4.3911

  Basis Set: (AUG-CC-PVQZ AUX)
    Blend: AUG-CC-PVQZ-RI
	 Reference Energy          =    -575.2044824926061892 [Eh]
	 Singles Energy            =      -0.0000000000000000 [Eh]
	 Same-Spin Energy          =      -0.1596512397460950 [Eh]
	 Opposite-Spin Energy      =      -0.5421691658115686 [Eh]
	 Correlation Energy        =      -0.7018204055576636 [Eh]
	 Total Energy              =    -575.9063028981638581 [Eh]

	 ================> DF-SCS-MP2 Energies <==================
	-----------------------------------------------------------
	 SCS Same-Spin Scale       =       0.3333333333333333 [-]
	 SCS Opposite-Spin Scale   =       1.2000000000000000 [-]
	 SCS Same-Spin Energy      =      -0.0532170799153650 [Eh]
	 SCS Opposite-Spin Energy  =      -0.6506029989738823 [Eh]
	 SCS Correlation Energy    =      -0.7038200788892472 [Eh]
	 SCS Total Energy          =    -575.9083025714954829 [Eh]
	-----------------------------------------------------------

*** Psi4 exiting successfully. Buy a developer a beer!
