                               Psi4 1.3.2 release

  ==> Input File <==

--------------------------------------------------------------------------
molecule {
0 1
 Cl                  0.2237841     0.8067207    -0.4751478
  C                 -1.3125540     0.0215805    -0.0346030
  H                 -1.4593911    -0.8497931    -0.6731564
  H                 -1.2619076    -0.2891343     1.0091662
  H                 -2.1297134     0.7295137    -0.1734769
--
0 1
  O                  2.2160441    -1.1067393     0.6375090
  H                  1.6943989    -1.7721882     1.0846732
  H                  1.6183631    -0.4595116     0.2587722
}
memory 15GB
set_num_threads(4)
psi4_io.set_default_path("/scratch/bdw2292/Psi4-CH3Cl")
set maxiter 500
set freeze_core True
set PROPERTIES_ORIGIN ["COM"]
e_dim= energy('mp2/aug-cc-pV[TQ]Z',bsse_type='cp')

psi4.print_out('CP Energy = %10.6f' % (e_dim))
clean()
--------------------------------------------------------------------------

    Molecular point group: c1
  Charge       = 0
  Multiplicity = 1
  Basis Set: AUG-CC-PVTZ
    Blend: AUG-CC-PVTZ
  Basis Set: (AUG-CC-PVTZ AUX)
    Blend: AUG-CC-PVTZ-JKFIT
  @DF-RHF Final Energy:   -76.06043150113450
    Total Energy =                        -76.0604315011345022
  Basis Set: (AUG-CC-PVTZ AUX)
    Blend: AUG-CC-PVTZ-RI
	 Reference Energy          =     -76.0604315011345022 [Eh]
	 Singles Energy            =      -0.0000000000000000 [Eh]
	 Same-Spin Energy          =      -0.0650987971672233 [Eh]
	 Opposite-Spin Energy      =      -0.2029916135477416 [Eh]
	 Correlation Energy        =      -0.2680904107149649 [Eh]
	 Total Energy              =     -76.3285219118494638 [Eh]
	 SCS Total Energy          =     -76.3257210364475327 [Eh]
    Molecular point group: c1
  Basis Set: AUG-CC-PVQZ
    Blend: AUG-CC-PVQZ
  Basis Set: (AUG-CC-PVQZ AUX)
    Blend: AUG-CC-PVQZ-JKFIT
  @DF-RHF Final Energy:   -76.06581790892430
    Total Energy =                        -76.0658179089243021
  Basis Set: (AUG-CC-PVQZ AUX)
  @DF-RHF Final Energy:   -76.06048980086891
    Total Energy =                        -76.0604898008689077
  @DF-RHF Final Energy:   -76.06583883287855
    Total Energy =                        -76.0658388328785549
  @DF-RHF Final Energy:  -499.14860347697993
    Total Energy =                       -499.1486034769799289
  @DF-RHF Final Energy:  -499.15463073148999
    Total Energy =                       -499.1546307314899877
  @DF-RHF Final Energy:  -499.14853352236236
    Total Energy =                       -499.1485335223623565
  @DF-RHF Final Energy:  -499.15461358152305
    Total Energy =                       -499.1546135815230514
  Multiplicity = 1
  @DF-RHF Final Energy:  -575.20202542385402
    Total Energy =                       -575.2020254238539110
	 Singles Energy            =      -0.0000000000000000 [Eh]
	 Same-Spin Energy          =      -0.1537814546349366 [Eh]
	 Opposite-Spin Energy      =      -0.5013718884863444 [Eh]
	 Correlation Energy        =      -0.6551533431212810 [Eh]
	 Total Energy              =    -575.8571787669752666 [Eh]
	 SCS Total Energy          =    -575.8549321749159162 [Eh]
    Molecular point group: c1

    Geometry (in Angstrom), charge = 0, multiplicity = 1:

       Center              X                  Y                   Z               Mass
    ------------   -----------------  -----------------  -----------------  -----------------
         CL          -0.158111044472     0.687533381455    -0.396975466811    34.968852682000
         C           -1.694449144472    -0.097606818545     0.043569333189    12.000000000000
         H           -1.841286244472    -0.968980418545    -0.594984066811     1.007825032230
         H           -1.643802744472    -0.408321618545     1.087338533189     1.007825032230
         H           -2.511608544472     0.610326381455    -0.095304566811     1.007825032230
         O            1.834148955528    -1.225926618545     0.715681333189    15.994914619570
         H            1.312503755528    -1.891375518545     1.162845533189     1.007825032230
         H            1.236467955528    -0.578698918545     0.336944533189     1.007825032230

  Charge       = 0
  Multiplicity = 1
  Basis Set: AUG-CC-PVQZ
    Blend: AUG-CC-PVQZ
  Basis Set: (AUG-CC-PVQZ AUX)
    Blend: AUG-CC-PVQZ-JKFIT

    Orbital Energies [Eh]
    ---------------------

    Doubly Occupied:

       1A   -104.845806     2A    -20.533630     3A    -11.307543
       4A    -10.572241     5A     -8.039276     6A     -8.037731
       7A     -8.037578     8A     -1.326895     9A     -1.151586
      10A     -0.934171    11A     -0.708909    12A     -0.634156
      13A     -0.632981    14A     -0.569962    15A     -0.556630
      16A     -0.485640    17A     -0.456235    18A     -0.454938

  @DF-RHF Final Energy:  -575.21341561163581

   => Energetics <=

    Nuclear Repulsion Energy =            104.5094758327259825
    One-Electron Energy =               -1000.8739630992176899
    Two-Electron Energy =                 321.1510716548558548
    Total Energy =                       -575.2134156116358099

  Dipole Moment: [D]
     X:    -4.2466      Y:    -0.5254      Z:     0.3731     Total:     4.2952

  Basis Set: (AUG-CC-PVQZ AUX)
    Blend: AUG-CC-PVQZ-RI
	 Reference Energy          =    -575.2134156116358099 [Eh]
	 Singles Energy            =      -0.0000000000000000 [Eh]
	 Same-Spin Energy          =      -0.1584978329372888 [Eh]
	 Opposite-Spin Energy      =      -0.5409007990027391 [Eh]
	 Correlation Energy        =      -0.6993986319400279 [Eh]
	 Total Energy              =    -575.9128142435758946 [Eh]

	 ================> DF-SCS-MP2 Energies <==================
	-----------------------------------------------------------
	 SCS Same-Spin Scale       =       0.3333333333333333 [-]
	 SCS Opposite-Spin Scale   =       1.2000000000000000 [-]
	 SCS Same-Spin Energy      =      -0.0528326109790963 [Eh]
	 SCS Opposite-Spin Energy  =      -0.6490809588032870 [Eh]
	 SCS Correlation Energy    =      -0.7019135697823833 [Eh]
	 SCS Total Energy          =    -575.9153291814182012 [Eh]
	-----------------------------------------------------------

*** Psi4 exiting successfully. Buy a developer a beer!
