                               Psi4 1.3.2 release

  ==> Input File <==

--------------------------------------------------------------------------
molecule {
0 1
 Cl                  0.2237841     0.8067207    -0.4751478
  C                 -1.3125540     0.0215805    -0.0346030
  H                 -1.4593911    -0.8497931    -0.6731564
  H                 -1.2619076    -0.2891343     1.0091662
  H                 -2.1297134     0.7295137    -0.1734769
--
0 1
  O                  3.5051535    -2.3448605     1.3574633
  H                  2.9835083    -3.0103094     1.8046276
  H                  2.9074725    -1.6976328     0.9787265
}
memory 15GB
set_num_threads(4)
psi4_io.set_default_path("/scratch/bdw2292/Psi4-CH3Cl")
set maxiter 500
set freeze_core True
set PROPERTIES_ORIGIN ["COM"]
e_dim= energy('mp2/aug-cc-pV[TQ]Z',bsse_type='cp')

psi4.print_out('CP Energy = %10.6f' % (e_dim))
clean()
--------------------------------------------------------------------------

    Molecular point group: c1
  Charge       = 0
  Multiplicity = 1
  Basis Set: AUG-CC-PVTZ
    Blend: AUG-CC-PVTZ
  Basis Set: (AUG-CC-PVTZ AUX)
    Blend: AUG-CC-PVTZ-JKFIT
  @DF-RHF Final Energy:   -76.06043149932103
    Total Energy =                        -76.0604314993210266
  Basis Set: (AUG-CC-PVTZ AUX)
    Blend: AUG-CC-PVTZ-RI
	 Reference Energy          =     -76.0604314993210266 [Eh]
	 Singles Energy            =      -0.0000000000000000 [Eh]
	 Same-Spin Energy          =      -0.0650987975741381 [Eh]
	 Opposite-Spin Energy      =      -0.2029916149047414 [Eh]
	 Correlation Energy        =      -0.2680904124788795 [Eh]
	 Total Energy              =     -76.3285219117999105 [Eh]
	 SCS Total Energy          =     -76.3257210363980931 [Eh]
    Molecular point group: c1
  Basis Set: AUG-CC-PVQZ
    Blend: AUG-CC-PVQZ
  Basis Set: (AUG-CC-PVQZ AUX)
    Blend: AUG-CC-PVQZ-JKFIT
  @DF-RHF Final Energy:   -76.06581790700176
    Total Energy =                        -76.0658179070017582
  Basis Set: (AUG-CC-PVQZ AUX)
  @DF-RHF Final Energy:   -76.06044041652709
    Total Energy =                        -76.0604404165270864
  @DF-RHF Final Energy:   -76.06582050099756
    Total Energy =                        -76.0658205009975603
  @DF-RHF Final Energy:  -499.14854237820362
    Total Energy =                       -499.1485423782036150
  @DF-RHF Final Energy:  -499.15461747472813
    Total Energy =                       -499.1546174747281270
  @DF-RHF Final Energy:  -499.14853352238930
    Total Energy =                       -499.1485335223893003
  @DF-RHF Final Energy:  -499.15461358144279
    Total Energy =                       -499.1546135814427885
  Multiplicity = 1
  @DF-RHF Final Energy:  -575.20957657573229
    Total Energy =                       -575.2095765757321715
	 Singles Energy            =      -0.0000000000000000 [Eh]
	 Same-Spin Energy          =      -0.1508461038480959 [Eh]
	 Opposite-Spin Energy      =      -0.4980478942073907 [Eh]
	 Correlation Energy        =      -0.6488939980554866 [Eh]
	 Total Energy              =    -575.8584705737878267 [Eh]
	 SCS Total Energy          =    -575.8575160833971722 [Eh]
    Molecular point group: c1

    Geometry (in Angstrom), charge = 0, multiplicity = 1:

       Center              X                  Y                   Z               Mass
    ------------   -----------------  -----------------  -----------------  -----------------
         CL          -0.499531642812     1.015449756064    -0.587655349988    34.968852682000
         C           -2.035869742812     0.230309556064    -0.147110549988    12.000000000000
         H           -2.182706842812    -0.641064043936    -0.785663949988     1.007825032230
         H           -1.985223342812    -0.080405243936     0.896658650012     1.007825032230
         H           -2.853029142812     0.938242756064    -0.285984449988     1.007825032230
         O            2.781837757188    -2.136131443936     1.244955750012    15.994914619570
         H            2.260192557188    -2.801580343936     1.692120050012     1.007825032230
         H            2.184156757188    -1.488903743936     0.866218950012     1.007825032230

  Charge       = 0
  Multiplicity = 1
  Basis Set: AUG-CC-PVQZ
    Blend: AUG-CC-PVQZ
  Basis Set: (AUG-CC-PVQZ AUX)
    Blend: AUG-CC-PVQZ-JKFIT

    Orbital Energies [Eh]
    ---------------------

    Doubly Occupied:

       1A   -104.832554     2A    -20.558542     3A    -11.297087
       4A    -10.557974     5A     -8.025106     6A     -8.023391
       7A     -8.023384     8A     -1.345424     9A     -1.135056
      10A     -0.920723    11A     -0.720138    12A     -0.622722
      13A     -0.622284    14A     -0.573087    15A     -0.554384
      16A     -0.504841    17A     -0.443657    18A     -0.442956

  @DF-RHF Final Energy:  -575.22102619175951

   => Energetics <=

    Nuclear Repulsion Energy =             87.8228959276551109
    One-Electron Energy =                -967.6812136916179270
    Two-Electron Energy =                 304.6372915722031962
    Total Energy =                       -575.2210261917596199

  Dipole Moment: [D]
     X:    -3.8100      Y:    -0.8685      Z:     0.5814     Total:     3.9508

  Basis Set: (AUG-CC-PVQZ AUX)
    Blend: AUG-CC-PVQZ-RI
	 Reference Energy          =    -575.2210261917595062 [Eh]
	 Singles Energy            =      -0.0000000000000000 [Eh]
	 Same-Spin Energy          =      -0.1555315513967613 [Eh]
	 Opposite-Spin Energy      =      -0.5376467611045778 [Eh]
	 Correlation Energy        =      -0.6931783125013390 [Eh]
	 Total Energy              =    -575.9142045042608515 [Eh]

	 ================> DF-SCS-MP2 Energies <==================
	-----------------------------------------------------------
	 SCS Same-Spin Scale       =       0.3333333333333333 [-]
	 SCS Opposite-Spin Scale   =       1.2000000000000000 [-]
	 SCS Same-Spin Energy      =      -0.0518438504655871 [Eh]
	 SCS Opposite-Spin Energy  =      -0.6451761133254933 [Eh]
	 SCS Correlation Energy    =      -0.6970199637910803 [Eh]
	 SCS Total Energy          =    -575.9180461555505417 [Eh]
	-----------------------------------------------------------

*** Psi4 exiting successfully. Buy a developer a beer!
