                               Psi4 1.3.2 release

  ==> Input File <==

--------------------------------------------------------------------------
molecule {
0 1
 Cl                  0.4394908    -0.1801125    -0.5551848
  C                 -1.2708923    -0.1638391    -0.0650151
  H                 -1.8543908    -0.7369805    -0.7855537
  H                 -1.3567971    -0.6113388     0.9253055
  H                 -1.6196502     0.8685789    -0.0375069
--
0 1
 Cl                  3.6675055     1.8551697     3.1332888
  C                  1.8983192     1.6879242     3.2373853
  H                  1.5543278     1.0534792     2.4209467
  H                  1.6425268     1.2360576     4.1955145
  H                  1.4452610     2.6759445     3.1590492
}
memory 15GB
set_num_threads(4)
psi4_io.set_default_path("/scratch/bdw2292/Psi4-CH3Cl")
set maxiter 500
set freeze_core True
set PROPERTIES_ORIGIN ["COM"]
e_dim= energy('mp2/aug-cc-pV[TQ]Z',bsse_type='cp')

psi4.print_out('CP Energy = %10.6f' % (e_dim))
clean()
--------------------------------------------------------------------------

    Molecular point group: c1
  Charge       = 0
  Multiplicity = 1
  Basis Set: AUG-CC-PVTZ
    Blend: AUG-CC-PVTZ
  Basis Set: (AUG-CC-PVTZ AUX)
    Blend: AUG-CC-PVTZ-JKFIT
  @DF-RHF Final Energy:  -499.14856763344909
    Total Energy =                       -499.1485676334490904
  Basis Set: (AUG-CC-PVTZ AUX)
    Blend: AUG-CC-PVTZ-RI
	 Reference Energy          =    -499.1485676334490904 [Eh]
	 Singles Energy            =      -0.0000000000000000 [Eh]
	 Same-Spin Energy          =      -0.0856094933699138 [Eh]
	 Opposite-Spin Energy      =      -0.2948772882533636 [Eh]
	 Correlation Energy        =      -0.3804867816232774 [Eh]
	 Total Energy              =    -499.5290544150723804 [Eh]
	 SCS Total Energy          =    -499.5309568771431259 [Eh]
    Molecular point group: c1
  Basis Set: AUG-CC-PVQZ
    Blend: AUG-CC-PVQZ
  Basis Set: (AUG-CC-PVQZ AUX)
    Blend: AUG-CC-PVQZ-JKFIT
  @DF-RHF Final Energy:  -499.15464951453350
    Total Energy =                       -499.1546495145335030
  Basis Set: (AUG-CC-PVQZ AUX)
  @DF-RHF Final Energy:  -499.14858199765860
    Total Energy =                       -499.1485819976585958
  @DF-RHF Final Energy:  -499.15465773037744
    Total Energy =                       -499.1546577303774370
  @DF-RHF Final Energy:  -499.14857911139939
    Total Energy =                       -499.1485791113993855
  @DF-RHF Final Energy:  -499.15463754878954
    Total Energy =                       -499.1546375487895375
  @DF-RHF Final Energy:  -499.14854407767035
    Total Energy =                       -499.1485440776704081
  @DF-RHF Final Energy:  -499.15462769133387
    Total Energy =                       -499.1546276913338716
  Multiplicity = 1
  @DF-RHF Final Energy:  -998.29715834036222
    Total Energy =                       -998.2971583403622162
	 Singles Energy            =      -0.0000000000000000 [Eh]
	 Same-Spin Energy          =      -0.1717419742191245 [Eh]
	 Opposite-Spin Energy      =      -0.5904597973173528 [Eh]
	 Correlation Energy        =      -0.7622017715364773 [Eh]
	 Total Energy              =    -999.0593601118987408 [Eh]
	 SCS Total Energy          =    -999.0629574218827429 [Eh]
    Molecular point group: c1

    Geometry (in Angstrom), charge = 0, multiplicity = 1:

       Center              X                  Y                   Z               Mass
    ------------   -----------------  -----------------  -----------------  -----------------
         CL          -1.070299590126    -0.994084315717    -1.937165161468    34.968852682000
         C           -2.780682690126    -0.977810915717    -1.446995461468    12.000000000000
         H           -3.364181190126    -1.550952315717    -2.167534061468     1.007825032230
         H           -2.866587490126    -1.425310615717    -0.456674861468     1.007825032230
         H           -3.129440590126     0.054607084283    -1.419487261468     1.007825032230
         CL           2.157715109874     1.041197884283     1.751308438532    34.968852682000
         C            0.388528809874     0.873952384283     1.855404938532    12.000000000000
         H            0.044537409874     0.239507384283     1.038966338532     1.007825032230
         H            0.132736409874     0.422085784283     2.813534138532     1.007825032230
         H           -0.064529390126     1.861972684283     1.777068838532     1.007825032230

  Charge       = 0
  Multiplicity = 1
  Basis Set: AUG-CC-PVQZ
    Blend: AUG-CC-PVQZ
  Basis Set: (AUG-CC-PVQZ AUX)
    Blend: AUG-CC-PVQZ-JKFIT

    Orbital Energies [Eh]
    ---------------------

    Doubly Occupied:

       1A   -104.830857     2A   -104.820782     3A    -11.296046
       4A    -11.285726     5A    -10.556316     6A    -10.546214
       7A     -8.023449     8A     -8.021722     9A     -8.021715
      10A     -8.013351    11A     -8.011629    12A     -8.011626
      13A     -1.134112    14A     -1.123631    15A     -0.919558
      16A     -0.909724    17A     -0.622354    18A     -0.621737
      19A     -0.611968    20A     -0.611089    21A     -0.553134
      22A     -0.543160    23A     -0.442407    24A     -0.441459
      25A     -0.431681    26A     -0.431011

  @DF-RHF Final Energy:  -998.30929538769067

   => Energetics <=

    Nuclear Repulsion Energy =            171.4406852010779687
    One-Electron Energy =               -1717.8270513348215900
    Two-Electron Energy =                 548.0770707460529820
    Total Energy =                       -998.3092953876906677

  Dipole Moment: [D]
     X:    -4.1182      Y:    -0.2470      Z:     0.5380     Total:     4.1606

  Basis Set: (AUG-CC-PVQZ AUX)
    Blend: AUG-CC-PVQZ-RI
	 Reference Energy          =    -998.3092953876906677 [Eh]
	 Singles Energy            =      -0.0000000000000000 [Eh]
	 Same-Spin Energy          =      -0.1769729141132650 [Eh]
	 Opposite-Spin Energy      =      -0.6385350359373523 [Eh]
	 Correlation Energy        =      -0.8155079500506173 [Eh]
	 Total Energy              =    -999.1248033377412412 [Eh]

	 ================> DF-SCS-MP2 Energies <==================
	-----------------------------------------------------------
	 SCS Same-Spin Scale       =       0.3333333333333333 [-]
	 SCS Opposite-Spin Scale   =       1.2000000000000000 [-]
	 SCS Same-Spin Energy      =      -0.0589909713710883 [Eh]
	 SCS Opposite-Spin Energy  =      -0.7662420431248227 [Eh]
	 SCS Correlation Energy    =      -0.8252330144959110 [Eh]
	 SCS Total Energy          =    -999.1345284021865609 [Eh]
	-----------------------------------------------------------

*** Psi4 exiting successfully. Buy a developer a beer!
