                               Psi4 1.3.2 release

  ==> Input File <==

--------------------------------------------------------------------------
molecule {
0 1
 Cl                  0.4394908    -0.1801125    -0.5551848
  C                 -1.2708923    -0.1638391    -0.0650151
  H                 -1.8543908    -0.7369805    -0.7855537
  H                 -1.3567971    -0.6113388     0.9253055
  H                 -1.6196502     0.8685789    -0.0375069
--
0 1
 Cl                  3.3423447     1.4953721     2.2652505
  C                  1.5731584     1.3281267     2.3693469
  H                  1.2291671     0.6936816     1.5529083
  H                  1.3173660     0.8762600     3.3274762
  H                  1.1201002     2.3161469     2.2910109
}
memory 15GB
set_num_threads(4)
psi4_io.set_default_path("/scratch/bdw2292/Psi4-CH3Cl")
set maxiter 500
set freeze_core True
set PROPERTIES_ORIGIN ["COM"]
e_dim= energy('mp2/aug-cc-pV[TQ]Z',bsse_type='cp')

psi4.print_out('CP Energy = %10.6f' % (e_dim))
clean()
--------------------------------------------------------------------------

    Molecular point group: c1
  Charge       = 0
  Multiplicity = 1
  Basis Set: AUG-CC-PVTZ
    Blend: AUG-CC-PVTZ
  Basis Set: (AUG-CC-PVTZ AUX)
    Blend: AUG-CC-PVTZ-JKFIT
  @DF-RHF Final Energy:  -499.14856763263015
    Total Energy =                       -499.1485676326301473
  Basis Set: (AUG-CC-PVTZ AUX)
    Blend: AUG-CC-PVTZ-RI
	 Reference Energy          =    -499.1485676326301473 [Eh]
	 Singles Energy            =      -0.0000000000000000 [Eh]
	 Same-Spin Energy          =      -0.0856094935503726 [Eh]
	 Opposite-Spin Energy      =      -0.2948772887231798 [Eh]
	 Correlation Energy        =      -0.3804867822735524 [Eh]
	 Total Energy              =    -499.5290544149037260 [Eh]
	 SCS Total Energy          =    -499.5309568769480961 [Eh]
    Molecular point group: c1
  Basis Set: AUG-CC-PVQZ
    Blend: AUG-CC-PVQZ
  Basis Set: (AUG-CC-PVQZ AUX)
    Blend: AUG-CC-PVQZ-JKFIT
  @DF-RHF Final Energy:  -499.15464951368631
    Total Energy =                       -499.1546495136863086
  Basis Set: (AUG-CC-PVQZ AUX)
  @DF-RHF Final Energy:  -499.14860080802174
    Total Energy =                       -499.1486008080217402
  @DF-RHF Final Energy:  -499.15466498689386
    Total Energy =                       -499.1546649868938630
  @DF-RHF Final Energy:  -499.14861806763520
    Total Energy =                       -499.1486180676351978
  @DF-RHF Final Energy:  -499.15464612253322
    Total Energy =                       -499.1546461225332223
  @DF-RHF Final Energy:  -499.14854407764790
    Total Energy =                       -499.1485440776478981
  @DF-RHF Final Energy:  -499.15462769130829
    Total Energy =                       -499.1546276913082920
  Multiplicity = 1
  @DF-RHF Final Energy:  -998.29261569603773
    Total Energy =                       -998.2926156960377284
	 Singles Energy            =      -0.0000000000000000 [Eh]
	 Same-Spin Energy          =      -0.1735530801101094 [Eh]
	 Opposite-Spin Energy      =      -0.5926680810694209 [Eh]
	 Correlation Energy        =      -0.7662211611795303 [Eh]
	 Total Energy              =    -999.0588368572172158 [Eh]
	 SCS Total Energy          =    -999.0616684200243753 [Eh]
    Molecular point group: c1

    Geometry (in Angstrom), charge = 0, multiplicity = 1:

       Center              X                  Y                   Z               Mass
    ------------   -----------------  -----------------  -----------------  -----------------
         CL          -0.907719191134    -0.814185527718    -1.503145998458    34.968852682000
         C           -2.618102291134    -0.797912127718    -1.012976298458    12.000000000000
         H           -3.201600791134    -1.371053527718    -1.733514898458     1.007825032230
         H           -2.704007091134    -1.245411827718    -0.022655698458     1.007825032230
         H           -2.966860191134     0.234505872282    -0.985468098458     1.007825032230
         CL           1.995134708866     0.861299072282     1.317289301542    34.968852682000
         C            0.225948408866     0.694053672282     1.421385701542    12.000000000000
         H           -0.118042891134     0.059608572282     0.604947101542     1.007825032230
         H           -0.029843991134     0.242186972282     2.379515001542     1.007825032230
         H           -0.227109791134     1.682073872282     1.343049701542     1.007825032230

  Charge       = 0
  Multiplicity = 1
  Basis Set: AUG-CC-PVQZ
    Blend: AUG-CC-PVQZ
  Basis Set: (AUG-CC-PVQZ AUX)
    Blend: AUG-CC-PVQZ-JKFIT

    Orbital Energies [Eh]
    ---------------------

    Doubly Occupied:

       1A   -104.834280     2A   -104.816789     3A    -11.299898
       4A    -11.277366     5A    -10.560174     6A    -10.542231
       7A     -8.027259     8A     -8.025584     9A     -8.025533
      10A     -8.009368    11A     -8.007667    12A     -8.007659
      13A     -1.139806    14A     -1.119021    15A     -0.924349
      16A     -0.904693    17A     -0.631300    18A     -0.625891
      19A     -0.606621    20A     -0.604951    21A     -0.557079
      22A     -0.538862    23A     -0.449747    24A     -0.446266
      25A     -0.427779    26A     -0.421946

  @DF-RHF Final Energy:  -998.30471501548629

   => Energetics <=

    Nuclear Repulsion Energy =            186.7048389662395493
    One-Electron Energy =               -1748.3548727797972333
    Two-Electron Energy =                 563.3453187980713892
    Total Energy =                       -998.3047150154862948

  Dipole Moment: [D]
     X:    -4.2286      Y:    -0.3510      Z:     0.3463     Total:     4.2572

  Basis Set: (AUG-CC-PVQZ AUX)
    Blend: AUG-CC-PVQZ-RI
	 Reference Energy          =    -998.3047150154862948 [Eh]
	 Singles Energy            =      -0.0000000000000000 [Eh]
	 Same-Spin Energy          =      -0.1787912902627802 [Eh]
	 Opposite-Spin Energy      =      -0.6406246159000796 [Eh]
	 Correlation Energy        =      -0.8194159061628598 [Eh]
	 Total Energy              =    -999.1241309216491118 [Eh]

	 ================> DF-SCS-MP2 Energies <==================
	-----------------------------------------------------------
	 SCS Same-Spin Scale       =       0.3333333333333333 [-]
	 SCS Opposite-Spin Scale   =       1.2000000000000000 [-]
	 SCS Same-Spin Energy      =      -0.0595970967542601 [Eh]
	 SCS Opposite-Spin Energy  =      -0.7687495390800955 [Eh]
	 SCS Correlation Energy    =      -0.8283466358343555 [Eh]
	 SCS Total Energy          =    -999.1330616513206451 [Eh]
	-----------------------------------------------------------

*** Psi4 exiting successfully. Buy a developer a beer!
