                               Psi4 1.3.2 release

  ==> Input File <==

--------------------------------------------------------------------------
molecule {
0 1
 Cl                 -0.0649832    -0.8758863    -1.3634788
  C                 -0.8615178    -0.1109893     0.0354210
  H                 -1.8997533    -0.4392969     0.0837063
  H                 -0.3333493    -0.4029180     0.9437515
  H                 -0.8158170     0.9717065    -0.0827292
--
0 1
  O                  2.8008229     1.0322437     0.5006234
  H                  2.5177737     0.4672177    -0.2207547
  H                  3.4657624     1.6330246     0.1646626
}
memory 15GB
set_num_threads(4)
psi4_io.set_default_path("/scratch/bdw2292/Psi4-CH3Cl")
set maxiter 500
set freeze_core True
set PROPERTIES_ORIGIN ["COM"]
e_dim= energy('mp2/aug-cc-pV[TQ]Z',bsse_type='cp')

psi4.print_out('CP Energy = %10.6f' % (e_dim))
clean()
--------------------------------------------------------------------------

    Molecular point group: c1
  Charge       = 0
  Multiplicity = 1
  Basis Set: AUG-CC-PVTZ
    Blend: AUG-CC-PVTZ
  Basis Set: (AUG-CC-PVTZ AUX)
    Blend: AUG-CC-PVTZ-JKFIT
  @DF-RHF Final Energy:   -76.06043506717631
    Total Energy =                        -76.0604350671763143
  Basis Set: (AUG-CC-PVTZ AUX)
    Blend: AUG-CC-PVTZ-RI
	 Reference Energy          =     -76.0604350671763143 [Eh]
	 Singles Energy            =      -0.0000000000000000 [Eh]
	 Same-Spin Energy          =      -0.0651071394160776 [Eh]
	 Opposite-Spin Energy      =      -0.2030207644318601 [Eh]
	 Correlation Energy        =      -0.2681279038479377 [Eh]
	 Total Energy              =     -76.3285629710242546 [Eh]
	 SCS Total Energy          =     -76.3257623642999050 [Eh]
    Molecular point group: c1
  Basis Set: AUG-CC-PVQZ
    Blend: AUG-CC-PVQZ
  Basis Set: (AUG-CC-PVQZ AUX)
    Blend: AUG-CC-PVQZ-JKFIT
  @DF-RHF Final Energy:   -76.06582003894806
    Total Energy =                        -76.0658200389480470
  Basis Set: (AUG-CC-PVQZ AUX)
  @DF-RHF Final Energy:   -76.06045855920141
    Total Energy =                        -76.0604585592014075
  @DF-RHF Final Energy:   -76.06583153322762
    Total Energy =                        -76.0658315332276231
  @DF-RHF Final Energy:  -499.14855609648032
    Total Energy =                       -499.1485560964803199
  @DF-RHF Final Energy:  -499.15460836255181
    Total Energy =                       -499.1546083625518122
  @DF-RHF Final Energy:  -499.14852182404263
    Total Energy =                       -499.1485218240426320
  @DF-RHF Final Energy:  -499.15459781061486
    Total Energy =                       -499.1545978106148596
  Multiplicity = 1
  @DF-RHF Final Energy:  -575.21154751738527
    Total Energy =                       -575.2115475173851564
	 Singles Energy            =      -0.0000000000000000 [Eh]
	 Same-Spin Energy          =      -0.1513141595377704 [Eh]
	 Opposite-Spin Energy      =      -0.4985564329337379 [Eh]
	 Correlation Energy        =      -0.6498705924715082 [Eh]
	 Total Energy              =    -575.8614181098567997 [Eh]
	 SCS Total Energy          =    -575.8602532900849837 [Eh]
    Molecular point group: c1

    Geometry (in Angstrom), charge = 0, multiplicity = 1:

       Center              X                  Y                   Z               Mass
    ------------   -----------------  -----------------  -----------------  -----------------
         CL          -0.581812709721    -0.681736042194    -0.799514279455    34.968852682000
         C           -1.378347309721     0.083160957806     0.599385520545    12.000000000000
         H           -2.416582809721    -0.245146642194     0.647670820545     1.007825032230
         H           -0.850178809721    -0.208767742194     1.507716020545     1.007825032230
         H           -1.332646509721     1.165856757806     0.481235320545     1.007825032230
         O            2.283993390279     1.226393957806     1.064587920545    15.994914619570
         H            2.000944190279     0.661367957806     0.343209820545     1.007825032230
         H            2.948932890279     1.827174857806     0.728627120545     1.007825032230

  Charge       = 0
  Multiplicity = 1
  Basis Set: AUG-CC-PVQZ
    Blend: AUG-CC-PVQZ
  Basis Set: (AUG-CC-PVQZ AUX)
    Blend: AUG-CC-PVQZ-JKFIT

    Orbital Energies [Eh]
    ---------------------

    Doubly Occupied:

       1A   -104.829798     2A    -20.560040     3A    -11.290483
       4A    -10.555261     5A     -8.022388     6A     -8.020718
       7A     -8.020701     8A     -1.347094     9A     -1.131080
      10A     -0.915102    11A     -0.721543    12A     -0.616475
      13A     -0.615112    14A     -0.575796    15A     -0.550132
      16A     -0.506798    17A     -0.441353    18A     -0.439765

  @DF-RHF Final Energy:  -575.22296744068149

   => Energetics <=

    Nuclear Repulsion Energy =             95.8620625884568369
    One-Electron Energy =                -983.8507699444827495
    Two-Electron Energy =                 312.7657399153443976
    Total Energy =                       -575.2229674406814866

  Dipole Moment: [D]
     X:    -0.4230      Y:     0.9664      Z:    -0.0808     Total:     1.0580

  Basis Set: (AUG-CC-PVQZ AUX)
    Blend: AUG-CC-PVQZ-RI
	 Reference Energy          =    -575.2229674406814866 [Eh]
	 Singles Energy            =      -0.0000000000000000 [Eh]
	 Same-Spin Energy          =      -0.1559980670833706 [Eh]
	 Opposite-Spin Energy      =      -0.5380922655384975 [Eh]
	 Correlation Energy        =      -0.6940903326218681 [Eh]
	 Total Energy              =    -575.9170577733033269 [Eh]

	 ================> DF-SCS-MP2 Energies <==================
	-----------------------------------------------------------
	 SCS Same-Spin Scale       =       0.3333333333333333 [-]
	 SCS Opposite-Spin Scale   =       1.2000000000000000 [-]
	 SCS Same-Spin Energy      =      -0.0519993556944569 [Eh]
	 SCS Opposite-Spin Energy  =      -0.6457107186461970 [Eh]
	 SCS Correlation Energy    =      -0.6977100743406539 [Eh]
	 SCS Total Energy          =    -575.9206775150221347 [Eh]
	-----------------------------------------------------------

*** Psi4 exiting successfully. Buy a developer a beer!
