                               Psi4 1.3.2 release

  ==> Input File <==

--------------------------------------------------------------------------
molecule {
0 1
 Cl                  0.2237841     0.8067207    -0.4751478
  C                 -1.3125540     0.0215805    -0.0346030
  H                 -1.4593911    -0.8497931    -0.6731564
  H                 -1.2619076    -0.2891343     1.0091662
  H                 -2.1297134     0.7295137    -0.1734769
--
0 1
  O                  2.3332359    -1.2192958     0.7029594
  H                  1.8115906    -1.8847447     1.1501236
  H                  1.7355549    -0.5720681     0.3242226
}
memory 15GB
set_num_threads(4)
psi4_io.set_default_path("/scratch/bdw2292/Psi4-CH3Cl")
set maxiter 500
set freeze_core True
set PROPERTIES_ORIGIN ["COM"]
e_dim= energy('mp2/aug-cc-pV[TQ]Z',bsse_type='cp')

psi4.print_out('CP Energy = %10.6f' % (e_dim))
clean()
--------------------------------------------------------------------------

    Molecular point group: c1
  Charge       = 0
  Multiplicity = 1
  Basis Set: AUG-CC-PVTZ
    Blend: AUG-CC-PVTZ
  Basis Set: (AUG-CC-PVTZ AUX)
    Blend: AUG-CC-PVTZ-JKFIT
  @DF-RHF Final Energy:   -76.06043149992844
    Total Energy =                        -76.0604314999284270
  Basis Set: (AUG-CC-PVTZ AUX)
    Blend: AUG-CC-PVTZ-RI
	 Reference Energy          =     -76.0604314999284412 [Eh]
	 Singles Energy            =      -0.0000000000000000 [Eh]
	 Same-Spin Energy          =      -0.0650987977196847 [Eh]
	 Opposite-Spin Energy      =      -0.2029916154323546 [Eh]
	 Correlation Energy        =      -0.2680904131520393 [Eh]
	 Total Energy              =     -76.3285219130804791 [Eh]
	 SCS Total Energy          =     -76.3257210376871598 [Eh]
    Molecular point group: c1
  Basis Set: AUG-CC-PVQZ
    Blend: AUG-CC-PVQZ
  Basis Set: (AUG-CC-PVQZ AUX)
    Blend: AUG-CC-PVQZ-JKFIT
  @DF-RHF Final Energy:   -76.06581790758536
    Total Energy =                        -76.0658179075853695
  Basis Set: (AUG-CC-PVQZ AUX)
  @DF-RHF Final Energy:   -76.06047872401446
    Total Energy =                        -76.0604787240144589
  @DF-RHF Final Energy:   -76.06583567808545
    Total Energy =                        -76.0658356780854490
  @DF-RHF Final Energy:  -499.14859676782396
    Total Energy =                       -499.1485967678239604
  @DF-RHF Final Energy:  -499.15462881756719
    Total Energy =                       -499.1546288175671862
  @DF-RHF Final Energy:  -499.14853352238651
    Total Energy =                       -499.1485335223865150
  @DF-RHF Final Energy:  -499.15461358125151
    Total Energy =                       -499.1546135812515104
  Multiplicity = 1
  @DF-RHF Final Energy:  -575.20664909211507
    Total Energy =                       -575.2066490921149580
	 Singles Energy            =      -0.0000000000000000 [Eh]
	 Same-Spin Energy          =      -0.1529571937281329 [Eh]
	 Opposite-Spin Energy      =      -0.5004923648267169 [Eh]
	 Correlation Energy        =      -0.6534495585548498 [Eh]
	 Total Energy              =    -575.8600986506698973 [Eh]
	 SCS Total Energy          =    -575.8582256611498451 [Eh]
    Molecular point group: c1

    Geometry (in Angstrom), charge = 0, multiplicity = 1:

       Center              X                  Y                   Z               Mass
    ------------   -----------------  -----------------  -----------------  -----------------
         CL          -0.189149288834     0.717343968188    -0.414310003918    34.968852682000
         C           -1.725487388834    -0.067796231812     0.026234796082    12.000000000000
         H           -1.872324488834    -0.939169831812    -0.612318603918     1.007825032230
         H           -1.674840988834    -0.378511031812     1.070003996082     1.007825032230
         H           -2.542646788834     0.640136968188    -0.112639103918     1.007825032230
         O            1.920302511166    -1.308672531812     0.763797196082    15.994914619570
         H            1.398657211166    -1.974121431812     1.210961396082     1.007825032230
         H            1.322621511166    -0.661444831812     0.385060396082     1.007825032230

  Charge       = 0
  Multiplicity = 1
  Basis Set: AUG-CC-PVQZ
    Blend: AUG-CC-PVQZ
  Basis Set: (AUG-CC-PVQZ AUX)
    Blend: AUG-CC-PVQZ-JKFIT

    Orbital Energies [Eh]
    ---------------------

    Doubly Occupied:

       1A   -104.844163     2A    -20.539916     3A    -11.305762
       4A    -10.570170     5A     -8.037250     6A     -8.035640
       7A     -8.035548     8A     -1.330582     9A     -1.148314
      10A     -0.931442    11A     -0.709343    12A     -0.632420
      13A     -0.631156    14A     -0.568060    15A     -0.558653
      16A     -0.489512    17A     -0.455229    18A     -0.454458

  @DF-RHF Final Energy:  -575.21805039517164

   => Energetics <=

    Nuclear Repulsion Energy =            102.1858884919967352
    One-Electron Energy =                -996.2526346812677502
    Two-Electron Energy =                 318.8486957940994557
    Total Energy =                       -575.2180503951715309

  Dipole Moment: [D]
     X:    -4.1568      Y:    -0.5945      Z:     0.4148     Total:     4.2196

  Basis Set: (AUG-CC-PVQZ AUX)
    Blend: AUG-CC-PVQZ-RI
	 Reference Energy          =    -575.2180503951716446 [Eh]
	 Singles Energy            =      -0.0000000000000000 [Eh]
	 Same-Spin Energy          =      -0.1576571889918327 [Eh]
	 Opposite-Spin Energy      =      -0.5399832950616392 [Eh]
	 Correlation Energy        =      -0.6976404840534719 [Eh]
	 Total Energy              =    -575.9156908792251670 [Eh]

	 ================> DF-SCS-MP2 Energies <==================
	-----------------------------------------------------------
	 SCS Same-Spin Scale       =       0.3333333333333333 [-]
	 SCS Opposite-Spin Scale   =       1.2000000000000000 [-]
	 SCS Same-Spin Energy      =      -0.0525523963306109 [Eh]
	 SCS Opposite-Spin Energy  =      -0.6479799540739670 [Eh]
	 SCS Correlation Energy    =      -0.7005323504045780 [Eh]
	 SCS Total Energy          =    -575.9185827455762592 [Eh]
	-----------------------------------------------------------

*** Psi4 exiting successfully. Buy a developer a beer!
