                               Psi4 1.3.2 release

  ==> Input File <==

--------------------------------------------------------------------------
molecule {
0 1
 Cl                  0.2237841     0.8067207    -0.4751478
  C                 -1.3125540     0.0215805    -0.0346030
  H                 -1.4593911    -0.8497931    -0.6731564
  H                 -1.2619076    -0.2891343     1.0091662
  H                 -2.1297134     0.7295137    -0.1734769
--
0 1
  O                  2.8020029    -1.6695217     0.9647610
  H                  2.2803577    -2.3349706     1.4119252
  H                  2.2043219    -1.0222940     0.5860241
}
memory 15GB
set_num_threads(4)
psi4_io.set_default_path("/scratch/bdw2292/Psi4-CH3Cl")
set maxiter 500
set freeze_core True
set PROPERTIES_ORIGIN ["COM"]
e_dim= energy('mp2/aug-cc-pV[TQ]Z',bsse_type='cp')

psi4.print_out('CP Energy = %10.6f' % (e_dim))
clean()
--------------------------------------------------------------------------

    Molecular point group: c1
  Charge       = 0
  Multiplicity = 1
  Basis Set: AUG-CC-PVTZ
    Blend: AUG-CC-PVTZ
  Basis Set: (AUG-CC-PVTZ AUX)
    Blend: AUG-CC-PVTZ-JKFIT
  @DF-RHF Final Energy:   -76.06043149929843
    Total Energy =                        -76.0604314992984314
  Basis Set: (AUG-CC-PVTZ AUX)
    Blend: AUG-CC-PVTZ-RI
	 Reference Energy          =     -76.0604314992984314 [Eh]
	 Singles Energy            =      -0.0000000000000000 [Eh]
	 Same-Spin Energy          =      -0.0650987975001154 [Eh]
	 Opposite-Spin Energy      =      -0.2029916146573724 [Eh]
	 Correlation Energy        =      -0.2680904121574879 [Eh]
	 Total Energy              =     -76.3285219114559226 [Eh]
	 SCS Total Energy          =     -76.3257210360539773 [Eh]
    Molecular point group: c1
  Basis Set: AUG-CC-PVQZ
    Blend: AUG-CC-PVQZ
  Basis Set: (AUG-CC-PVQZ AUX)
    Blend: AUG-CC-PVQZ-JKFIT
  @DF-RHF Final Energy:   -76.06581790699124
    Total Energy =                        -76.0658179069912421
  Basis Set: (AUG-CC-PVQZ AUX)
  @DF-RHF Final Energy:   -76.06045242403569
    Total Energy =                        -76.0604524240356881
  @DF-RHF Final Energy:   -76.06582693234931
    Total Energy =                        -76.0658269323493101
  @DF-RHF Final Energy:  -499.14857261326637
    Total Energy =                       -499.1485726132663672
  @DF-RHF Final Energy:  -499.15462316175439
    Total Energy =                       -499.1546231617543867
  @DF-RHF Final Energy:  -499.14853352244921
    Total Energy =                       -499.1485335224492133
  @DF-RHF Final Energy:  -499.15461358138043
    Total Energy =                       -499.1546135813804312
  Multiplicity = 1
  @DF-RHF Final Energy:  -575.21037221328163
    Total Energy =                       -575.2103722132816301
	 Singles Energy            =      -0.0000000000000000 [Eh]
	 Same-Spin Energy          =      -0.1513788634004480 [Eh]
	 Opposite-Spin Energy      =      -0.4987157718878327 [Eh]
	 Correlation Energy        =      -0.6500946352882807 [Eh]
	 Total Energy              =    -575.8604668485698994 [Eh]
	 SCS Total Energy          =    -575.8592907606805511 [Eh]
    Molecular point group: c1

    Geometry (in Angstrom), charge = 0, multiplicity = 1:

       Center              X                  Y                   Z               Mass
    ------------   -----------------  -----------------  -----------------  -----------------
         CL          -0.313302220720     0.836586288635    -0.483648150865    34.968852682000
         C           -1.849640320720     0.051446088635    -0.043103350865    12.000000000000
         H           -1.996477420720    -0.819927511365    -0.681656750865     1.007825032230
         H           -1.798993920720    -0.259268711365     1.000665849135     1.007825032230
         H           -2.666799720720     0.759379288635    -0.181977250865     1.007825032230
         O            2.264916579280    -1.639656111365     0.956260649135    15.994914619570
         H            1.743271379280    -2.305105011365     1.403424849135     1.007825032230
         H            1.667235579280    -0.992428411365     0.577523749135     1.007825032230

  Charge       = 0
  Multiplicity = 1
  Basis Set: AUG-CC-PVQZ
    Blend: AUG-CC-PVQZ
  Basis Set: (AUG-CC-PVQZ AUX)
    Blend: AUG-CC-PVQZ-JKFIT

    Orbital Energies [Eh]
    ---------------------

    Doubly Occupied:

       1A   -104.838095     2A    -20.552752     3A    -11.300931
       4A    -10.563568     5A     -8.030695     6A     -8.029003
       7A     -8.028980     8A     -1.340121     9A     -1.140427
      10A     -0.925116    11A     -0.715111    12A     -0.626961
      13A     -0.626224    14A     -0.568506    15A     -0.559104
      16A     -0.499543    17A     -0.449792    18A     -0.448078

  @DF-RHF Final Energy:  -575.22180912637884

   => Energetics <=

    Nuclear Repulsion Energy =             94.9387033949682007
    One-Electron Energy =                -981.8350035020165478
    Two-Electron Energy =                 311.6744909806694750
    Total Energy =                       -575.2218091263788438

  Dipole Moment: [D]
     X:    -3.9376      Y:    -0.7649      Z:     0.5181     Total:     4.0446

  Basis Set: (AUG-CC-PVQZ AUX)
    Blend: AUG-CC-PVQZ-RI
	 Reference Energy          =    -575.2218091263788438 [Eh]
	 Singles Energy            =      -0.0000000000000000 [Eh]
	 Same-Spin Energy          =      -0.1560598690976844 [Eh]
	 Opposite-Spin Energy      =      -0.5382202057782373 [Eh]
	 Correlation Energy        =      -0.6942800748759217 [Eh]
	 Total Energy              =    -575.9160892012547492 [Eh]

	 ================> DF-SCS-MP2 Energies <==================
	-----------------------------------------------------------
	 SCS Same-Spin Scale       =       0.3333333333333333 [-]
	 SCS Opposite-Spin Scale   =       1.2000000000000000 [-]
	 SCS Same-Spin Energy      =      -0.0520199563658948 [Eh]
	 SCS Opposite-Spin Energy  =      -0.6458642469338847 [Eh]
	 SCS Correlation Energy    =      -0.6978842032997795 [Eh]
	 SCS Total Energy          =    -575.9196933296785801 [Eh]
	-----------------------------------------------------------

*** Psi4 exiting successfully. Buy a developer a beer!
