                               Psi4 1.3.2 release

  ==> Input File <==

--------------------------------------------------------------------------
molecule {
0 1
 Cl                 -0.0649832    -0.8758863    -1.3634788
  C                 -0.8615178    -0.1109893     0.0354210
  H                 -1.8997533    -0.4392969     0.0837063
  H                 -0.3333493    -0.4029180     0.9437515
  H                 -0.8158170     0.9717065    -0.0827292
--
0 1
  O                  3.2312824     1.2560944     0.6910774
  H                  2.9482332     0.6910684    -0.0303007
  H                  3.8962219     1.8568753     0.3551166
}
memory 15GB
set_num_threads(4)
psi4_io.set_default_path("/scratch/bdw2292/Psi4-CH3Cl")
set maxiter 500
set freeze_core True
set PROPERTIES_ORIGIN ["COM"]
e_dim= energy('mp2/aug-cc-pV[TQ]Z',bsse_type='cp')

psi4.print_out('CP Energy = %10.6f' % (e_dim))
clean()
--------------------------------------------------------------------------

    Molecular point group: c1
  Charge       = 0
  Multiplicity = 1
  Basis Set: AUG-CC-PVTZ
    Blend: AUG-CC-PVTZ
  Basis Set: (AUG-CC-PVTZ AUX)
    Blend: AUG-CC-PVTZ-JKFIT
  @DF-RHF Final Energy:   -76.06043506717083
    Total Energy =                        -76.0604350671708289
  Basis Set: (AUG-CC-PVTZ AUX)
    Blend: AUG-CC-PVTZ-RI
	 Reference Energy          =     -76.0604350671708289 [Eh]
	 Singles Energy            =      -0.0000000000000000 [Eh]
	 Same-Spin Energy          =      -0.0651071394160968 [Eh]
	 Opposite-Spin Energy      =      -0.2030207644319254 [Eh]
	 Correlation Energy        =      -0.2681279038480223 [Eh]
	 Total Energy              =     -76.3285629710188545 [Eh]
	 SCS Total Energy          =     -76.3257623642945049 [Eh]
    Molecular point group: c1
  Basis Set: AUG-CC-PVQZ
    Blend: AUG-CC-PVQZ
  Basis Set: (AUG-CC-PVQZ AUX)
    Blend: AUG-CC-PVQZ-JKFIT
  @DF-RHF Final Energy:   -76.06582003895851
    Total Energy =                        -76.0658200389584920
  Basis Set: (AUG-CC-PVQZ AUX)
  @DF-RHF Final Energy:   -76.06044753031152
    Total Energy =                        -76.0604475303115208
  @DF-RHF Final Energy:   -76.06582634059538
    Total Energy =                        -76.0658263405953790
  @DF-RHF Final Energy:  -499.14854288678453
    Total Energy =                       -499.1485428867845258
  @DF-RHF Final Energy:  -499.15460567408854
    Total Energy =                       -499.1546056740885433
  @DF-RHF Final Energy:  -499.14852182395998
    Total Energy =                       -499.1485218239599817
  @DF-RHF Final Energy:  -499.15459781069796
    Total Energy =                       -499.1545978106979646
  Multiplicity = 1
  @DF-RHF Final Energy:  -575.21074050965274
    Total Energy =                       -575.2107405096526236
	 Singles Energy            =      -0.0000000000000000 [Eh]
	 Same-Spin Energy          =      -0.1509697904309992 [Eh]
	 Opposite-Spin Energy      =      -0.4981686930606508 [Eh]
	 Correlation Energy        =      -0.6491384834916500 [Eh]
	 Total Energy              =    -575.8598789931444344 [Eh]
	 SCS Total Energy          =    -575.8588662048025526 [Eh]
    Molecular point group: c1

    Geometry (in Angstrom), charge = 0, multiplicity = 1:

       Center              X                  Y                   Z               Mass
    ------------   -----------------  -----------------  -----------------  -----------------
         CL          -0.695819899531    -0.741022895531    -0.849956017477    34.968852682000
         C           -1.492354499531     0.023874104469     0.548943782523    12.000000000000
         H           -2.530589999531    -0.304433495531     0.597229082523     1.007825032230
         H           -0.964185999531    -0.268054595531     1.457274282523     1.007825032230
         H           -1.446653699531     1.106569904469     0.430793582523     1.007825032230
         O            2.600445700469     1.390957804469     1.204600182523    15.994914619570
         H            2.317396500469     0.825931804469     0.483222082523     1.007825032230
         H            3.265385200469     1.991738704469     0.868639382523     1.007825032230

  Charge       = 0
  Multiplicity = 1
  Basis Set: AUG-CC-PVQZ
    Blend: AUG-CC-PVQZ
  Basis Set: (AUG-CC-PVQZ AUX)
    Blend: AUG-CC-PVQZ-JKFIT

    Orbital Energies [Eh]
    ---------------------

    Doubly Occupied:

       1A   -104.828355     2A    -20.561625     3A    -11.290812
       4A    -10.553786     5A     -8.020916     6A     -8.019227
       7A     -8.019217     8A     -1.348426     9A     -1.129936
      10A     -0.914966    11A     -0.722665    12A     -0.616658
      13A     -0.615359    14A     -0.576821    15A     -0.549278
      16A     -0.508067    17A     -0.439606    18A     -0.438573

  @DF-RHF Final Energy:  -575.22217174129287

   => Energetics <=

    Nuclear Repulsion Energy =             91.7602544674781342
    One-Electron Energy =                -975.6562584991945641
    Two-Electron Energy =                 308.6738322904234906
    Total Energy =                       -575.2221717412928683

  Dipole Moment: [D]
     X:    -0.3751      Y:     0.9698      Z:    -0.0951     Total:     1.0441

  Basis Set: (AUG-CC-PVQZ AUX)
    Blend: AUG-CC-PVQZ-RI
	 Reference Energy          =    -575.2221717412928683 [Eh]
	 Singles Energy            =      -0.0000000000000000 [Eh]
	 Same-Spin Energy          =      -0.1556536876005378 [Eh]
	 Opposite-Spin Energy      =      -0.5377473296071131 [Eh]
	 Correlation Energy        =      -0.6934010172076510 [Eh]
	 Total Energy              =    -575.9155727585005025 [Eh]

	 ================> DF-SCS-MP2 Energies <==================
	-----------------------------------------------------------
	 SCS Same-Spin Scale       =       0.3333333333333333 [-]
	 SCS Opposite-Spin Scale   =       1.2000000000000000 [-]
	 SCS Same-Spin Energy      =      -0.0518845625335126 [Eh]
	 SCS Opposite-Spin Energy  =      -0.6452967955285357 [Eh]
	 SCS Correlation Energy    =      -0.6971813580620483 [Eh]
	 SCS Total Energy          =    -575.9193530993549075 [Eh]
	-----------------------------------------------------------

*** Psi4 exiting successfully. Buy a developer a beer!
