                               Psi4 1.3.2 release

  ==> Input File <==

--------------------------------------------------------------------------
molecule {
0 1
 Cl                  0.4394908    -0.1801125    -0.5551848
  C                 -1.2708923    -0.1638391    -0.0650151
  H                 -1.8543908    -0.7369805    -0.7855537
  H                 -1.3567971    -0.6113388     0.9253055
  H                 -1.6196502     0.8685789    -0.0375069
--
0 1
 Cl                  3.8533117     2.0607683     3.6293108
  C                  2.0841253     1.8935229     3.7334072
  H                  1.7401340     1.2590778     2.9169686
  H                  1.8283330     1.4416562     4.6915364
  H                  1.6310672     2.8815431     3.6550711
}
memory 15GB
set_num_threads(4)
psi4_io.set_default_path("/scratch/bdw2292/Psi4-CH3Cl")
set maxiter 500
set freeze_core True
set PROPERTIES_ORIGIN ["COM"]
e_dim= energy('mp2/aug-cc-pV[TQ]Z',bsse_type='cp')

psi4.print_out('CP Energy = %10.6f' % (e_dim))
clean()
--------------------------------------------------------------------------

    Molecular point group: c1
  Charge       = 0
  Multiplicity = 1
  Basis Set: AUG-CC-PVTZ
    Blend: AUG-CC-PVTZ
  Basis Set: (AUG-CC-PVTZ AUX)
    Blend: AUG-CC-PVTZ-JKFIT
  @DF-RHF Final Energy:  -499.14856763565206
    Total Energy =                       -499.1485676356520571
  Basis Set: (AUG-CC-PVTZ AUX)
    Blend: AUG-CC-PVTZ-RI
	 Reference Energy          =    -499.1485676356520571 [Eh]
	 Singles Energy            =      -0.0000000000000000 [Eh]
	 Same-Spin Energy          =      -0.0856094926983605 [Eh]
	 Opposite-Spin Energy      =      -0.2948772876030776 [Eh]
	 Correlation Energy        =      -0.3804867803014381 [Eh]
	 Total Energy              =    -499.5290544159535102 [Eh]
	 SCS Total Energy          =    -499.5309568783418968 [Eh]
    Molecular point group: c1
  Basis Set: AUG-CC-PVQZ
    Blend: AUG-CC-PVQZ
  Basis Set: (AUG-CC-PVQZ AUX)
    Blend: AUG-CC-PVQZ-JKFIT
  @DF-RHF Final Energy:  -499.15464951660874
    Total Energy =                       -499.1546495166087425
  Basis Set: (AUG-CC-PVQZ AUX)
  @DF-RHF Final Energy:  -499.14857654559108
    Total Energy =                       -499.1485765455910837
  @DF-RHF Final Energy:  -499.15465506213559
    Total Energy =                       -499.1546550621355891
  @DF-RHF Final Energy:  -499.14856089991883
    Total Energy =                       -499.1485608999188344
  @DF-RHF Final Energy:  -499.15463405566504
    Total Energy =                       -499.1546340556650421
  @DF-RHF Final Energy:  -499.14854407764523
    Total Energy =                       -499.1485440776452833
  @DF-RHF Final Energy:  -499.15462769137622
    Total Energy =                       -499.1546276913762199
  Multiplicity = 1
  @DF-RHF Final Energy:  -998.29713771410832
    Total Energy =                       -998.2971377141083167
	 Singles Energy            =      -0.0000000000000000 [Eh]
	 Same-Spin Energy          =      -0.1714747294731828 [Eh]
	 Opposite-Spin Energy      =      -0.5901214052752741 [Eh]
	 Correlation Energy        =      -0.7615961347484570 [Eh]
	 Total Energy              =    -999.0587338488567184 [Eh]
	 SCS Total Energy          =    -999.0624416435963440 [Eh]
    Molecular point group: c1

    Geometry (in Angstrom), charge = 0, multiplicity = 1:

       Center              X                  Y                   Z               Mass
    ------------   -----------------  -----------------  -----------------  -----------------
         CL          -1.163202678124    -1.096883627718    -2.185176146442    34.968852682000
         C           -2.873585778124    -1.080610227718    -1.695006446442    12.000000000000
         H           -3.457084278124    -1.653751627718    -2.415545046442     1.007825032230
         H           -2.959490578124    -1.528109927718    -0.704685846442     1.007825032230
         H           -3.222343678124    -0.048192227718    -1.667498246442     1.007825032230
         CL           2.250618221876     1.143997172282     1.999319453558    34.968852682000
         C            0.481431821876     0.976751772282     2.103415853558    12.000000000000
         H            0.137440521876     0.342306672282     1.286977253558     1.007825032230
         H            0.225639521876     0.524885072282     3.061545053558     1.007825032230
         H            0.028373721876     1.964771972282     2.025079753558     1.007825032230

  Charge       = 0
  Multiplicity = 1
  Basis Set: AUG-CC-PVQZ
    Blend: AUG-CC-PVQZ
  Basis Set: (AUG-CC-PVQZ AUX)
    Blend: AUG-CC-PVQZ-JKFIT

    Orbital Energies [Eh]
    ---------------------

    Doubly Occupied:

       1A   -104.829466     2A   -104.821861     3A    -11.294850
       4A    -11.287247     5A    -10.554909     6A    -10.547293
       7A     -8.022043     8A     -8.020314     9A     -8.020310
      10A     -8.014430    11A     -8.012704    12A     -8.012702
      13A     -1.132663    14A     -1.124803    15A     -0.918273
      16A     -0.910969    17A     -0.620766    18A     -0.620482
      19A     -0.613175    20A     -0.612760    21A     -0.551830
      22A     -0.544295    23A     -0.440537    24A     -0.440079
      25A     -0.432734    26A     -0.432494

  @DF-RHF Final Energy:  -998.30928889328527

   => Energetics <=

    Nuclear Repulsion Energy =            164.9365414604418163
    One-Electron Energy =               -1704.8236793178080006
    Two-Electron Energy =                 541.5778489640809994
    Total Energy =                       -998.3092888932852702

  Dipole Moment: [D]
     X:    -4.1015      Y:    -0.2236      Z:     0.5876     Total:     4.1494

  Basis Set: (AUG-CC-PVQZ AUX)
    Blend: AUG-CC-PVQZ-RI
	 Reference Energy          =    -998.3092888932852702 [Eh]
	 Singles Energy            =      -0.0000000000000000 [Eh]
	 Same-Spin Energy          =      -0.1767063200356590 [Eh]
	 Opposite-Spin Energy      =      -0.6382292518040423 [Eh]
	 Correlation Energy        =      -0.8149355718397013 [Eh]
	 Total Energy              =    -999.1242244651249393 [Eh]

	 ================> DF-SCS-MP2 Energies <==================
	-----------------------------------------------------------
	 SCS Same-Spin Scale       =       0.3333333333333333 [-]
	 SCS Opposite-Spin Scale   =       1.2000000000000000 [-]
	 SCS Same-Spin Energy      =      -0.0589021066785530 [Eh]
	 SCS Opposite-Spin Energy  =      -0.7658751021648508 [Eh]
	 SCS Correlation Energy    =      -0.8247772088434038 [Eh]
	 SCS Total Energy          =    -999.1340661021287133 [Eh]
	-----------------------------------------------------------

*** Psi4 exiting successfully. Buy a developer a beer!
