                               Psi4 1.3.2 release

  ==> Input File <==

--------------------------------------------------------------------------
molecule {
0 1
 Cl                 -0.0649832    -0.8758863    -1.3634788
  C                 -0.8615178    -0.1109893     0.0354210
  H                 -1.8997533    -0.4392969     0.0837063
  H                 -0.3333493    -0.4029180     0.9437515
  H                 -0.8158170     0.9717065    -0.0827292
--
0 1
  O                  2.1551337     0.6964677     0.2149424
  H                  1.8720845     0.1314417    -0.5064358
  H                  2.8200732     1.2972486    -0.1210185
}
memory 15GB
set_num_threads(4)
psi4_io.set_default_path("/scratch/bdw2292/Psi4-CH3Cl")
set maxiter 500
set freeze_core True
set PROPERTIES_ORIGIN ["COM"]
e_dim= energy('mp2/aug-cc-pV[TQ]Z',bsse_type='cp')

psi4.print_out('CP Energy = %10.6f' % (e_dim))
clean()
--------------------------------------------------------------------------

    Molecular point group: c1
  Charge       = 0
  Multiplicity = 1
  Basis Set: AUG-CC-PVTZ
    Blend: AUG-CC-PVTZ
  Basis Set: (AUG-CC-PVTZ AUX)
    Blend: AUG-CC-PVTZ-JKFIT
  @DF-RHF Final Energy:   -76.06043506410640
    Total Energy =                        -76.0604350641064002
  Basis Set: (AUG-CC-PVTZ AUX)
    Blend: AUG-CC-PVTZ-RI
	 Reference Energy          =     -76.0604350641064002 [Eh]
	 Singles Energy            =      -0.0000000000000000 [Eh]
	 Same-Spin Energy          =      -0.0651071405244194 [Eh]
	 Opposite-Spin Energy      =      -0.2030207682072720 [Eh]
	 Correlation Energy        =      -0.2681279087316914 [Eh]
	 Total Energy              =     -76.3285629728380854 [Eh]
	 SCS Total Energy          =     -76.3257623661299363 [Eh]
    Molecular point group: c1
  Basis Set: AUG-CC-PVQZ
    Blend: AUG-CC-PVQZ
  Basis Set: (AUG-CC-PVQZ AUX)
    Blend: AUG-CC-PVQZ-JKFIT
  @DF-RHF Final Energy:   -76.06582003561365
    Total Energy =                        -76.0658200356136547
  Basis Set: (AUG-CC-PVQZ AUX)
  @DF-RHF Final Energy:   -76.06049566329141
    Total Energy =                        -76.0604956632913911
  @DF-RHF Final Energy:   -76.06584673037328
    Total Energy =                        -76.0658467303732806
  @DF-RHF Final Energy:  -499.14858147392675
    Total Energy =                       -499.1485814739267539
  @DF-RHF Final Energy:  -499.15461506847231
    Total Energy =                       -499.1546150684723671
  @DF-RHF Final Energy:  -499.14852182404849
    Total Energy =                       -499.1485218240484869
  @DF-RHF Final Energy:  -499.15459781071911
    Total Energy =                       -499.1545978107191104
  Multiplicity = 1
  @DF-RHF Final Energy:  -575.20988393375524
    Total Energy =                       -575.2098839337553500
	 Singles Energy            =      -0.0000000000000000 [Eh]
	 Same-Spin Energy          =      -0.1530123721679091 [Eh]
	 Opposite-Spin Energy      =      -0.5004366607408276 [Eh]
	 Correlation Energy        =      -0.6534490329087368 [Eh]
	 Total Energy              =    -575.8633329666639611 [Eh]
	 SCS Total Energy          =    -575.8614120507002099 [Eh]
    Molecular point group: c1

    Geometry (in Angstrom), charge = 0, multiplicity = 1:

       Center              X                  Y                   Z               Mass
    ------------   -----------------  -----------------  -----------------  -----------------
         CL          -0.410801938249    -0.592805775432    -0.723851669458    34.968852682000
         C           -1.207336538249     0.172091224568     0.675048130542    12.000000000000
         H           -2.245572038249    -0.156216375432     0.723333430542     1.007825032230
         H           -0.679168038249    -0.119837475432     1.583378630542     1.007825032230
         H           -1.161635738249     1.254787024568     0.556897930542     1.007825032230
         O            1.809314961751     0.979548224568     0.854569530542    15.994914619570
         H            1.526265761751     0.414522224568     0.133191330542     1.007825032230
         H            2.474254461751     1.580329124568     0.518608630542     1.007825032230

  Charge       = 0
  Multiplicity = 1
  Basis Set: AUG-CC-PVQZ
    Blend: AUG-CC-PVQZ
  Basis Set: (AUG-CC-PVQZ AUX)
    Blend: AUG-CC-PVQZ-JKFIT

    Orbital Energies [Eh]
    ---------------------

    Doubly Occupied:

       1A   -104.833055     2A    -20.552120     3A    -11.289189
       4A    -10.558887     5A     -8.025982     6A     -8.024397
       7A     -8.024331     8A     -1.342026     9A     -1.134876
      10A     -0.915628    11A     -0.720147    12A     -0.615114
      13A     -0.613685    14A     -0.572039    15A     -0.552535
      16A     -0.500851    17A     -0.445467    18A     -0.443145

  @DF-RHF Final Energy:  -575.22126728311821

   => Energetics <=

    Nuclear Repulsion Energy =            104.4281864086454874
    One-Electron Energy =               -1000.9719499546810084
    Two-Electron Energy =                 321.3224962629172410
    Total Energy =                       -575.2212672831183227

  Dipole Moment: [D]
     X:    -0.5606      Y:     0.9419      Z:    -0.0697     Total:     1.0983

  Basis Set: (AUG-CC-PVQZ AUX)
    Blend: AUG-CC-PVQZ-RI
	 Reference Energy          =    -575.2212672831182090 [Eh]
	 Singles Energy            =      -0.0000000000000000 [Eh]
	 Same-Spin Energy          =      -0.1577205120123032 [Eh]
	 Opposite-Spin Energy      =      -0.5399353345092210 [Eh]
	 Correlation Energy        =      -0.6976558465215242 [Eh]
	 Total Energy              =    -575.9189231296397793 [Eh]

	 ================> DF-SCS-MP2 Energies <==================
	-----------------------------------------------------------
	 SCS Same-Spin Scale       =       0.3333333333333333 [-]
	 SCS Opposite-Spin Scale   =       1.2000000000000000 [-]
	 SCS Same-Spin Energy      =      -0.0525735040041011 [Eh]
	 SCS Opposite-Spin Energy  =      -0.6479224014110653 [Eh]
	 SCS Correlation Energy    =      -0.7004959054151664 [Eh]
	 SCS Total Energy          =    -575.9217631885334185 [Eh]
	-----------------------------------------------------------

*** Psi4 exiting successfully. Buy a developer a beer!
