                               Psi4 1.3.2 release

  ==> Input File <==

--------------------------------------------------------------------------
molecule {
0 1
 Cl                  0.4394908    -0.1801125    -0.5551848
  C                 -1.2708923    -0.1638391    -0.0650151
  H                 -1.8543908    -0.7369805    -0.7855537
  H                 -1.3567971    -0.6113388     0.9253055
  H                 -1.6196502     0.8685789    -0.0375069
--
0 1
 Cl                  3.2958932     1.4439724     2.1412450
  C                  1.5267068     1.2767270     2.2453414
  H                  1.1827155     0.6422820     1.4289029
  H                  1.2709145     0.8248603     3.2034707
  H                  1.0736487     2.2647472     2.1670054
}
memory 15GB
set_num_threads(4)
psi4_io.set_default_path("/scratch/bdw2292/Psi4-CH3Cl")
set maxiter 500
set freeze_core True
set PROPERTIES_ORIGIN ["COM"]
e_dim= energy('mp2/aug-cc-pV[TQ]Z',bsse_type='cp')

psi4.print_out('CP Energy = %10.6f' % (e_dim))
clean()
--------------------------------------------------------------------------

    Molecular point group: c1
  Charge       = 0
  Multiplicity = 1
  Basis Set: AUG-CC-PVTZ
    Blend: AUG-CC-PVTZ
  Basis Set: (AUG-CC-PVTZ AUX)
    Blend: AUG-CC-PVTZ-JKFIT
  @DF-RHF Final Energy:  -499.14856763653881
    Total Energy =                       -499.1485676365388144
  Basis Set: (AUG-CC-PVTZ AUX)
    Blend: AUG-CC-PVTZ-RI
	 Reference Energy          =    -499.1485676365388144 [Eh]
	 Singles Energy            =      -0.0000000000000000 [Eh]
	 Same-Spin Energy          =      -0.0856094926386505 [Eh]
	 Opposite-Spin Energy      =      -0.2948772871223518 [Eh]
	 Correlation Energy        =      -0.3804867797610024 [Eh]
	 Total Energy              =    -499.5290544162998003 [Eh]
	 SCS Total Energy          =    -499.5309568786318550 [Eh]
    Molecular point group: c1
  Basis Set: AUG-CC-PVQZ
    Blend: AUG-CC-PVQZ
  Basis Set: (AUG-CC-PVQZ AUX)
    Blend: AUG-CC-PVQZ-JKFIT
  @DF-RHF Final Energy:  -499.15464951754007
    Total Energy =                       -499.1546495175400651
  Basis Set: (AUG-CC-PVQZ AUX)
  @DF-RHF Final Energy:  -499.14860373987722
    Total Energy =                       -499.1486037398772169
  @DF-RHF Final Energy:  -499.15466647817891
    Total Energy =                       -499.1546664781789104
  @DF-RHF Final Energy:  -499.14862396471494
    Total Energy =                       -499.1486239647149432
  @DF-RHF Final Energy:  -499.15464733376257
    Total Energy =                       -499.1546473337625685
  @DF-RHF Final Energy:  -499.14854407764608
    Total Energy =                       -499.1485440776460791
  @DF-RHF Final Energy:  -499.15462769139720
    Total Energy =                       -499.1546276913971951
  Multiplicity = 1
  @DF-RHF Final Energy:  -998.28956616173377
    Total Energy =                       -998.2895661617337737
	 Singles Energy            =      -0.0000000000000000 [Eh]
	 Same-Spin Energy          =      -0.1741616238731410 [Eh]
	 Opposite-Spin Energy      =      -0.5933668803943195 [Eh]
	 Correlation Energy        =      -0.7675285042674606 [Eh]
	 Total Energy              =    -999.0570946660012623 [Eh]
	 SCS Total Energy          =    -999.0596602928313814 [Eh]
    Molecular point group: c1

    Geometry (in Angstrom), charge = 0, multiplicity = 1:

       Center              X                  Y                   Z               Mass
    ------------   -----------------  -----------------  -----------------  -----------------
         CL          -0.884493428124    -0.788485678726    -1.441143249466    34.968852682000
         C           -2.594876528124    -0.772212278726    -0.950973549466    12.000000000000
         H           -3.178375028124    -1.345353678726    -1.671512149466     1.007825032230
         H           -2.680781328124    -1.219711978726     0.039347050534     1.007825032230
         H           -2.943634428124     0.260205721274    -0.923465349466     1.007825032230
         CL           1.971908971876     0.835599221274     1.255286550534    34.968852682000
         C            0.202722571876     0.668353821274     1.359382950534    12.000000000000
         H           -0.141268728124     0.033908821274     0.542944450534     1.007825032230
         H           -0.053069728124     0.216487121274     2.317512250534     1.007825032230
         H           -0.250335528124     1.656374021274     1.281046950534     1.007825032230

  Charge       = 0
  Multiplicity = 1
  Basis Set: AUG-CC-PVQZ
    Blend: AUG-CC-PVQZ
  Basis Set: (AUG-CC-PVQZ AUX)
    Blend: AUG-CC-PVQZ-JKFIT

    Orbital Energies [Eh]
    ---------------------

    Doubly Occupied:

       1A   -104.834838     2A   -104.815756     3A    -11.300879
       4A    -11.274523     5A    -10.560961     6A    -10.541201
       7A     -8.028015     8A     -8.026375     9A     -8.026293
      10A     -8.008338    11A     -8.006644    12A     -8.006636
      13A     -1.141623    14A     -1.117760    15A     -0.925826
      16A     -0.903347    17A     -0.634456    18A     -0.626980
      19A     -0.605070    20A     -0.604041    21A     -0.557887
      22A     -0.537798    23A     -0.451163    24A     -0.447567
      25A     -0.426763    26A     -0.418688

  @DF-RHF Final Energy:  -998.30165748745026

   => Energetics <=

    Nuclear Repulsion Energy =            189.4471941807516657
    One-Electron Energy =               -1753.8388475432564064
    Two-Electron Energy =                 566.0899958750544556
    Total Energy =                       -998.3016574874502567

  Dipole Moment: [D]
     X:    -4.2665      Y:    -0.3820      Z:     0.2944     Total:     4.2937

  Basis Set: (AUG-CC-PVQZ AUX)
    Blend: AUG-CC-PVQZ-RI
	 Reference Energy          =    -998.3016574874502567 [Eh]
	 Singles Energy            =      -0.0000000000000000 [Eh]
	 Same-Spin Energy          =      -0.1794086755349912 [Eh]
	 Opposite-Spin Energy      =      -0.6413303892355363 [Eh]
	 Correlation Energy        =      -0.8207390647705275 [Eh]
	 Total Energy              =    -999.1223965522208346 [Eh]

	 ================> DF-SCS-MP2 Energies <==================
	-----------------------------------------------------------
	 SCS Same-Spin Scale       =       0.3333333333333333 [-]
	 SCS Opposite-Spin Scale   =       1.2000000000000000 [-]
	 SCS Same-Spin Energy      =      -0.0598028918449971 [Eh]
	 SCS Opposite-Spin Energy  =      -0.7695964670826435 [Eh]
	 SCS Correlation Energy    =      -0.8293993589276406 [Eh]
	 SCS Total Energy          =    -999.1310568463778736 [Eh]
	-----------------------------------------------------------

*** Psi4 exiting successfully. Buy a developer a beer!
