                               Psi4 1.3.2 release

  ==> Input File <==

--------------------------------------------------------------------------
molecule {
0 1
 Cl                  0.4394908    -0.1801125    -0.5551848
  C                 -1.2708923    -0.1638391    -0.0650151
  H                 -1.8543908    -0.7369805    -0.7855537
  H                 -1.3567971    -0.6113388     0.9253055
  H                 -1.6196502     0.8685789    -0.0375069
--
0 1
 Cl                  3.3887963     1.5467717     2.3892560
  C                  1.6196099     1.3795263     2.4933524
  H                  1.2756186     0.7450813     1.6769138
  H                  1.3638176     0.9276596     3.4514816
  H                  1.1665518     2.3675465     2.4150163
}
memory 15GB
set_num_threads(4)
psi4_io.set_default_path("/scratch/bdw2292/Psi4-CH3Cl")
set maxiter 500
set freeze_core True
set PROPERTIES_ORIGIN ["COM"]
e_dim= energy('mp2/aug-cc-pV[TQ]Z',bsse_type='cp')

psi4.print_out('CP Energy = %10.6f' % (e_dim))
clean()
--------------------------------------------------------------------------

    Molecular point group: c1
  Charge       = 0
  Multiplicity = 1
  Basis Set: AUG-CC-PVTZ
    Blend: AUG-CC-PVTZ
  Basis Set: (AUG-CC-PVTZ AUX)
    Blend: AUG-CC-PVTZ-JKFIT
  @DF-RHF Final Energy:  -499.14856763675306
    Total Energy =                       -499.1485676367531141
  Basis Set: (AUG-CC-PVTZ AUX)
    Blend: AUG-CC-PVTZ-RI
	 Reference Energy          =    -499.1485676367530573 [Eh]
	 Singles Energy            =      -0.0000000000000000 [Eh]
	 Same-Spin Energy          =      -0.0856094926325368 [Eh]
	 Opposite-Spin Energy      =      -0.2948772870590454 [Eh]
	 Correlation Energy        =      -0.3804867796915822 [Eh]
	 Total Energy              =    -499.5290544164446374 [Eh]
	 SCS Total Energy          =    -499.5309568787681087 [Eh]
    Molecular point group: c1
  Basis Set: AUG-CC-PVQZ
    Blend: AUG-CC-PVQZ
  Basis Set: (AUG-CC-PVQZ AUX)
    Blend: AUG-CC-PVQZ-JKFIT
  @DF-RHF Final Energy:  -499.15464951759009
    Total Energy =                       -499.1546495175900873
  Basis Set: (AUG-CC-PVQZ AUX)
  @DF-RHF Final Energy:  -499.14859792389615
    Total Energy =                       -499.1485979238961477
  @DF-RHF Final Energy:  -499.15466362426037
    Total Energy =                       -499.1546636242603654
  @DF-RHF Final Energy:  -499.14861172209459
    Total Energy =                       -499.1486117220945857
  @DF-RHF Final Energy:  -499.15464486618117
    Total Energy =                       -499.1546448661811723
  @DF-RHF Final Energy:  -499.14854407762078
    Total Energy =                       -499.1485440776207838
  @DF-RHF Final Energy:  -499.15462769133012
    Total Energy =                       -499.1546276913301199
  Multiplicity = 1
  @DF-RHF Final Energy:  -998.29451060241513
    Total Energy =                       -998.2945106024151301
	 Singles Energy            =      -0.0000000000000000 [Eh]
	 Same-Spin Energy          =      -0.1730770617898981 [Eh]
	 Opposite-Spin Energy      =      -0.5921094194742929 [Eh]
	 Correlation Energy        =      -0.7651864812641909 [Eh]
	 Total Energy              =    -999.0596970836793389 [Eh]
	 SCS Total Energy          =    -999.0627342597142615 [Eh]
    Molecular point group: c1

    Geometry (in Angstrom), charge = 0, multiplicity = 1:

       Center              X                  Y                   Z               Mass
    ------------   -----------------  -----------------  -----------------  -----------------
         CL          -0.930944978124    -0.839885328726    -1.565148746442    34.968852682000
         C           -2.641328078124    -0.823611928726    -1.074979046442    12.000000000000
         H           -3.224826578124    -1.396753328726    -1.795517646442     1.007825032230
         H           -2.727232878124    -1.271111628726    -0.084658446442     1.007825032230
         H           -2.990085978124     0.208806071274    -1.047470846442     1.007825032230
         CL           2.018360521876     0.886998871274     1.379292053558    34.968852682000
         C            0.249174121876     0.719753471274     1.483388453558    12.000000000000
         H           -0.094817178124     0.085308471274     0.666949853558     1.007825032230
         H           -0.006618178124     0.267886771274     2.441517653558     1.007825032230
         H           -0.203883978124     1.707773671274     1.405052353558     1.007825032230

  Charge       = 0
  Multiplicity = 1
  Basis Set: AUG-CC-PVQZ
    Blend: AUG-CC-PVQZ
  Basis Set: (AUG-CC-PVQZ AUX)
    Blend: AUG-CC-PVQZ-JKFIT

    Orbital Energies [Eh]
    ---------------------

    Doubly Occupied:

       1A   -104.833742     2A   -104.817656     3A    -11.299085
       4A    -11.279551     5A    -10.559480     6A    -10.543095
       7A     -8.026585     8A     -8.024889     9A     -8.024856
      10A     -8.010233    11A     -8.008525    12A     -8.008519
      13A     -1.138429    14A     -1.120058    15A     -0.923215
      16A     -0.905814    17A     -0.628906    18A     -0.624997
      19A     -0.607880    20A     -0.606009    21A     -0.556340
      22A     -0.539778    23A     -0.448329    24A     -0.445213
      25A     -0.428629    26A     -0.424400

  @DF-RHF Final Energy:  -998.30661757478435

   => Energetics <=

    Nuclear Repulsion Energy =            184.1292955455359959
    One-Electron Energy =               -1743.2033958334232011
    Two-Electron Energy =                 560.7674827131028223
    Total Energy =                       -998.3066175747843545

  Dipole Moment: [D]
     X:    -4.1994      Y:    -0.3263      Z:     0.3890     Total:     4.2300

  Basis Set: (AUG-CC-PVQZ AUX)
    Blend: AUG-CC-PVQZ-RI
	 Reference Energy          =    -998.3066175747843545 [Eh]
	 Singles Energy            =      -0.0000000000000000 [Eh]
	 Same-Spin Energy          =      -0.1783098748364620 [Eh]
	 Opposite-Spin Energy      =      -0.6400710235370726 [Eh]
	 Correlation Energy        =      -0.8183808983735346 [Eh]
	 Total Energy              =    -999.1249984731579161 [Eh]

	 ================> DF-SCS-MP2 Energies <==================
	-----------------------------------------------------------
	 SCS Same-Spin Scale       =       0.3333333333333333 [-]
	 SCS Opposite-Spin Scale   =       1.2000000000000000 [-]
	 SCS Same-Spin Energy      =      -0.0594366249454873 [Eh]
	 SCS Opposite-Spin Energy  =      -0.7680852282444871 [Eh]
	 SCS Correlation Energy    =      -0.8275218531899744 [Eh]
	 SCS Total Energy          =    -999.1341394279743326 [Eh]
	-----------------------------------------------------------

*** Psi4 exiting successfully. Buy a developer a beer!
