                               Psi4 1.3.2 release

  ==> Input File <==

--------------------------------------------------------------------------
molecule {
0 1
 Cl                 -0.0649832    -0.8758863    -1.3634788
  C                 -0.8615178    -0.1109893     0.0354210
  H                 -1.8997533    -0.4392969     0.0837063
  H                 -0.3333493    -0.4029180     0.9437515
  H                 -0.8158170     0.9717065    -0.0827292
--
0 1
  O                  2.3703634     0.8083931     0.3101694
  H                  2.0873142     0.2433671    -0.4112088
  H                  3.0353029     1.4091739    -0.0257915
}
memory 15GB
set_num_threads(4)
psi4_io.set_default_path("/scratch/bdw2292/Psi4-CH3Cl")
set maxiter 500
set freeze_core True
set PROPERTIES_ORIGIN ["COM"]
e_dim= energy('mp2/aug-cc-pV[TQ]Z',bsse_type='cp')

psi4.print_out('CP Energy = %10.6f' % (e_dim))
clean()
--------------------------------------------------------------------------

    Molecular point group: c1
  Charge       = 0
  Multiplicity = 1
  Basis Set: AUG-CC-PVTZ
    Blend: AUG-CC-PVTZ
  Basis Set: (AUG-CC-PVTZ AUX)
    Blend: AUG-CC-PVTZ-JKFIT
  @DF-RHF Final Energy:   -76.06043506662590
    Total Energy =                        -76.0604350666258995
  Basis Set: (AUG-CC-PVTZ AUX)
    Blend: AUG-CC-PVTZ-RI
	 Reference Energy          =     -76.0604350666258995 [Eh]
	 Singles Energy            =      -0.0000000000000000 [Eh]
	 Same-Spin Energy          =      -0.0651071399834676 [Eh]
	 Opposite-Spin Energy      =      -0.2030207664019951 [Eh]
	 Correlation Energy        =      -0.2681279063854627 [Eh]
	 Total Energy              =     -76.3285629730113584 [Eh]
	 SCS Total Energy          =     -76.3257623663027829 [Eh]
    Molecular point group: c1
  Basis Set: AUG-CC-PVQZ
    Blend: AUG-CC-PVQZ
  Basis Set: (AUG-CC-PVQZ AUX)
    Blend: AUG-CC-PVQZ-JKFIT
  @DF-RHF Final Energy:   -76.06582003831639
    Total Energy =                        -76.0658200383163887
  Basis Set: (AUG-CC-PVQZ AUX)
  @DF-RHF Final Energy:   -76.06047953729316
    Total Energy =                        -76.0604795372931619
  @DF-RHF Final Energy:   -76.06584064245131
    Total Energy =                        -76.0658406424513203
  @DF-RHF Final Energy:  -499.14857075591880
    Total Energy =                       -499.1485707559187972
  @DF-RHF Final Energy:  -499.15461264063487
    Total Energy =                       -499.1546126406348662
  @DF-RHF Final Energy:  -499.14852182403274
    Total Energy =                       -499.1485218240327413
  @DF-RHF Final Energy:  -499.15459781073605
    Total Energy =                       -499.1545978107360497
  Multiplicity = 1
  @DF-RHF Final Energy:  -575.21166085088771
    Total Energy =                       -575.2116608508877107
	 Singles Energy            =      -0.0000000000000000 [Eh]
	 Same-Spin Energy          =      -0.1521745607146349 [Eh]
	 Opposite-Spin Energy      =      -0.4995236868879234 [Eh]
	 Correlation Energy        =      -0.6516982476025582 [Eh]
	 Total Energy              =    -575.8633590984902639 [Eh]
	 SCS Total Energy          =    -575.8618141287247454 [Eh]
    Molecular point group: c1

    Geometry (in Angstrom), charge = 0, multiplicity = 1:

       Center              X                  Y                   Z               Mass
    ------------   -----------------  -----------------  -----------------  -----------------
         CL          -0.467805519911    -0.622449213861    -0.749072538469    34.968852682000
         C           -1.264340119911     0.142447786139     0.649827261531    12.000000000000
         H           -2.302575619911    -0.185859813861     0.698112561531     1.007825032230
         H           -0.736171619911    -0.149480913861     1.558157761531     1.007825032230
         H           -1.218639319911     1.225143586139     0.531677061531     1.007825032230
         O            1.967541080089     1.061830186139     0.924575661531    15.994914619570
         H            1.684491880089     0.496804186139     0.203197461531     1.007825032230
         H            2.632480580089     1.662610986139     0.588614761531     1.007825032230

  Charge       = 0
  Multiplicity = 1
  Basis Set: AUG-CC-PVQZ
    Blend: AUG-CC-PVQZ
  Basis Set: (AUG-CC-PVQZ AUX)
    Blend: AUG-CC-PVQZ-JKFIT

    Orbital Energies [Eh]
    ---------------------

    Doubly Occupied:

       1A   -104.831869     2A    -20.556134     3A    -11.289778
       4A    -10.557477     5A     -8.024593     6A     -8.022963
       7A     -8.022926     8A     -1.344321     9A     -1.133130
      10A     -0.915330    11A     -0.720181    12A     -0.615722
      13A     -0.614554    14A     -0.573702    15A     -0.551505
      16A     -0.503803    17A     -0.444061    18A     -0.441703

  @DF-RHF Final Energy:  -575.22306510225451

   => Energetics <=

    Nuclear Repulsion Energy =            101.1598424587804175
    One-Electron Energy =                -994.4382971107461344
    Two-Electron Energy =                 318.0553895497112080
    Total Energy =                       -575.2230651022545089

  Dipole Moment: [D]
     X:    -0.5027      Y:     0.9549      Z:    -0.0697     Total:     1.0814

  Basis Set: (AUG-CC-PVQZ AUX)
    Blend: AUG-CC-PVQZ-RI
	 Reference Energy          =    -575.2230651022545089 [Eh]
	 Singles Energy            =      -0.0000000000000000 [Eh]
	 Same-Spin Energy          =      -0.1568669419102444 [Eh]
	 Opposite-Spin Energy      =      -0.5390152763013673 [Eh]
	 Correlation Energy        =      -0.6958822182116117 [Eh]
	 Total Energy              =    -575.9189473204661454 [Eh]

	 ================> DF-SCS-MP2 Energies <==================
	-----------------------------------------------------------
	 SCS Same-Spin Scale       =       0.3333333333333333 [-]
	 SCS Opposite-Spin Scale   =       1.2000000000000000 [-]
	 SCS Same-Spin Energy      =      -0.0522889806367481 [Eh]
	 SCS Opposite-Spin Energy  =      -0.6468183315616407 [Eh]
	 SCS Correlation Energy    =      -0.6991073121983888 [Eh]
	 SCS Total Energy          =    -575.9221724144529162 [Eh]
	-----------------------------------------------------------

*** Psi4 exiting successfully. Buy a developer a beer!
