                               Psi4 1.3.2 release

  ==> Input File <==

--------------------------------------------------------------------------
molecule {
0 1
 Cl                 -0.0649832    -0.8758863    -1.3634788
  C                 -0.8615178    -0.1109893     0.0354210
  H                 -1.8997533    -0.4392969     0.0837063
  H                 -0.3333493    -0.4029180     0.9437515
  H                 -0.8158170     0.9717065    -0.0827292
--
0 1
  O                  1.9399040     0.5845424     0.1197154
  H                  1.6568547     0.0195164    -0.6016628
  H                  2.6048434     1.1853232    -0.2162455
}
memory 15GB
set_num_threads(4)
psi4_io.set_default_path("/scratch/bdw2292/Psi4-CH3Cl")
set maxiter 500
set freeze_core True
set PROPERTIES_ORIGIN ["COM"]
e_dim= energy('mp2/aug-cc-pV[TQ]Z',bsse_type='cp')

psi4.print_out('CP Energy = %10.6f' % (e_dim))
clean()
--------------------------------------------------------------------------

    Molecular point group: c1
  Charge       = 0
  Multiplicity = 1
  Basis Set: AUG-CC-PVTZ
    Blend: AUG-CC-PVTZ
  Basis Set: (AUG-CC-PVTZ AUX)
    Blend: AUG-CC-PVTZ-JKFIT
  @DF-RHF Final Energy:   -76.06043506751512
    Total Energy =                        -76.0604350675151153
  Basis Set: (AUG-CC-PVTZ AUX)
    Blend: AUG-CC-PVTZ-RI
	 Reference Energy          =     -76.0604350675151153 [Eh]
	 Singles Energy            =      -0.0000000000000000 [Eh]
	 Same-Spin Energy          =      -0.0651071395804712 [Eh]
	 Opposite-Spin Energy      =      -0.2030207650348713 [Eh]
	 Correlation Energy        =      -0.2681279046153424 [Eh]
	 Total Energy              =     -76.3285629721304559 [Eh]
	 SCS Total Energy          =     -76.3257623654171198 [Eh]
    Molecular point group: c1
  Basis Set: AUG-CC-PVQZ
    Blend: AUG-CC-PVQZ
  Basis Set: (AUG-CC-PVQZ AUX)
    Blend: AUG-CC-PVQZ-JKFIT
  @DF-RHF Final Energy:   -76.06582003928297
    Total Energy =                        -76.0658200392829542
  Basis Set: (AUG-CC-PVQZ AUX)
  @DF-RHF Final Energy:   -76.06051660439265
    Total Energy =                        -76.0605166043926459
  @DF-RHF Final Energy:   -76.06585298641374
    Total Energy =                        -76.0658529864137449
  @DF-RHF Final Energy:  -499.14859415150102
    Total Energy =                       -499.1485941515010154
  @DF-RHF Final Energy:  -499.15461774424699
    Total Energy =                       -499.1546177442469912
  @DF-RHF Final Energy:  -499.14852182405275
    Total Energy =                       -499.1485218240527502
  @DF-RHF Final Energy:  -499.15459781053755
    Total Energy =                       -499.1545978105375525
  Multiplicity = 1
  @DF-RHF Final Energy:  -575.20385902577675
    Total Energy =                       -575.2038590257768647
	 Singles Energy            =      -0.0000000000000000 [Eh]
	 Same-Spin Energy          =      -0.1543407000173315 [Eh]
	 Opposite-Spin Energy      =      -0.5018728212461528 [Eh]
	 Correlation Energy        =      -0.6562135212634843 [Eh]
	 Total Energy              =    -575.8600725470402040 [Eh]
	 SCS Total Energy          =    -575.8575533112779112 [Eh]
    Molecular point group: c1

    Geometry (in Angstrom), charge = 0, multiplicity = 1:

       Center              X                  Y                   Z               Mass
    ------------   -----------------  -----------------  -----------------  -----------------
         CL          -0.353798353623    -0.563162360524    -0.698630800447    34.968852682000
         C           -1.150332953623     0.201734639476     0.700268999553    12.000000000000
         H           -2.188568453623    -0.126572960524     0.748554299553     1.007825032230
         H           -0.622164453623    -0.090194060524     1.608599499553     1.007825032230
         H           -1.104632153623     1.284430439476     0.582118799553     1.007825032230
         O            1.651088846377     0.897266339476     0.784563399553    15.994914619570
         H            1.368039546377     0.332240339476     0.063185199553     1.007825032230
         H            2.316028246377     1.498047139476     0.448602499553     1.007825032230

  Charge       = 0
  Multiplicity = 1
  Basis Set: AUG-CC-PVQZ
    Blend: AUG-CC-PVQZ
  Basis Set: (AUG-CC-PVQZ AUX)
    Blend: AUG-CC-PVQZ-JKFIT

    Orbital Energies [Eh]
    ---------------------

    Doubly Occupied:

       1A   -104.834195     2A    -20.545358     3A    -11.288389
       4A    -10.560512     5A     -8.027553     6A     -8.026060
       7A     -8.025926     8A     -1.339114     9A     -1.137600
      10A     -0.916368    11A     -0.721911    12A     -0.615065
      13A     -0.611255    14A     -0.569992    15A     -0.553928
      16A     -0.496077    17A     -0.445918    18A     -0.445015

  @DF-RHF Final Energy:  -575.21521859107065

   => Energetics <=

    Nuclear Repulsion Energy =            108.2454982819023712
    One-Electron Energy =               -1008.6009611949290274
    Two-Electron Energy =                 325.1402443219559473
    Total Energy =                       -575.2152185910707658

  Dipole Moment: [D]
     X:    -0.6346      Y:     0.9195      Z:    -0.0782     Total:     1.1200

  Basis Set: (AUG-CC-PVQZ AUX)
    Blend: AUG-CC-PVQZ-RI
	 Reference Energy          =    -575.2152185910706521 [Eh]
	 Singles Energy            =      -0.0000000000000000 [Eh]
	 Same-Spin Energy          =      -0.1590793512803008 [Eh]
	 Opposite-Spin Energy      =      -0.5414104753740568 [Eh]
	 Correlation Energy        =      -0.7004898266543576 [Eh]
	 Total Energy              =    -575.9157084177249999 [Eh]

	 ================> DF-SCS-MP2 Energies <==================
	-----------------------------------------------------------
	 SCS Same-Spin Scale       =       0.3333333333333333 [-]
	 SCS Opposite-Spin Scale   =       1.2000000000000000 [-]
	 SCS Same-Spin Energy      =      -0.0530264504267669 [Eh]
	 SCS Opposite-Spin Energy  =      -0.6496925704488682 [Eh]
	 SCS Correlation Energy    =      -0.7027190208756351 [Eh]
	 SCS Total Energy          =    -575.9179376119462859 [Eh]
	-----------------------------------------------------------

*** Psi4 exiting successfully. Buy a developer a beer!
