                               Psi4 1.3.2 release

  ==> Input File <==

--------------------------------------------------------------------------
molecule {
0 1
C          0.76840       -0.39010        0.07510
C          0.81870        0.79670        0.73960
N          2.01500        1.48570        1.02620
H          2.04670        2.35900        1.59500
C          3.32760        1.04510        0.55700
C         -0.38080        1.37730        1.15150
C         -0.45250       -0.99130       -0.17810
C         -1.58120        0.75890        0.88810
C         -1.67290       -0.44230        0.21710
H          1.69470       -0.88110       -0.25600
H         -0.33620        2.31250        1.67300
H         -0.49600       -1.93920       -0.70890
H         -2.48410        1.26410        1.24600
C          3.53340        1.16240       -0.86330
C          3.87280        0.15870       -1.73820
C          3.35530        2.44010       -1.39440
C          4.03720        0.37270       -3.08890
C          3.52170        2.63130       -2.72740
C          3.85900        1.63490       -3.60150
H          4.01560       -0.83530       -1.35160
H          3.08980        3.27710       -0.76290
H          4.30510       -0.43950       -3.75400
H          3.38170        3.62370       -3.13930
H          3.98460        1.81640       -4.66570
H          3.44930        0.01690        0.82690
H          4.04440        1.69140        1.01890
H         -2.57650       -0.90090        0.02180
}
memory 100GB
set_num_threads(12)
psi4_io.set_default_path("/scratch/bdw2292/Psi4-farH_in17")
set maxiter 500
set freeze_core True
set PROPERTIES_ORIGIN ["COM"]
set cubeprop_tasks ['esp']
E, wfn = properties('hf/MINIX',properties=['dipole'],return_wfn=True)
cubeprop(wfn)
fchk(wfn, "farH_in17-esp_frag.fchk")
oeprop(wfn,"WIBERG_LOWDIN_INDICES","MULLIKEN_CHARGES")
clean()
--------------------------------------------------------------------------

    Molecular point group: c1

    Geometry (in Angstrom), charge = 0, multiplicity = 1:

       Center              X                  Y                   Z               Mass
    ------------   -----------------  -----------------  -----------------  -----------------
         C           -1.026224869957    -1.257970202324     0.695030529075    12.000000000000
         C           -0.975924869957    -0.071170202324     1.359530529075    12.000000000000
         N            0.220375130043     0.617829797676     1.646130529075    14.003074004430
         H            0.252075130043     1.491129797676     2.214930529075     1.007825032230
         C            1.532975130043     0.177229797676     1.176930529075    12.000000000000
         C           -2.175424869957     0.509429797676     1.771430529075    12.000000000000
         C           -2.247124869957    -1.859170202324     0.441830529075    12.000000000000
         C           -3.375824869957    -0.108970202324     1.508030529075    12.000000000000
         C           -3.467524869957    -1.310170202324     0.837030529075    12.000000000000
         H           -0.099924869957    -1.748970202324     0.363930529075     1.007825032230
         H           -2.130824869957     1.444629797676     2.292930529075     1.007825032230
         H           -2.290624869957    -2.807070202324    -0.088969470925     1.007825032230
         H           -4.278724869957     0.396229797676     1.865930529075     1.007825032230
         C            1.738775130043     0.294529797676    -0.243369470925    12.000000000000
         C            2.078175130043    -0.709170202324    -1.118269470925    12.000000000000
         C            1.560675130043     1.572229797676    -0.774469470925    12.000000000000
         C            2.242575130043    -0.495170202324    -2.468969470925    12.000000000000
         C            1.727075130043     1.763429797676    -2.107469470925    12.000000000000
         C            2.064375130043     0.767029797676    -2.981569470925    12.000000000000
         H            2.220975130043    -1.703170202324    -0.731669470925     1.007825032230
         H            1.295175130043     2.409229797676    -0.142969470925     1.007825032230
         H            2.510475130043    -1.307370202324    -3.134069470925     1.007825032230
         H            1.587075130043     2.755829797676    -2.519369470925     1.007825032230
         H            2.189975130043     0.948529797676    -4.045769470925     1.007825032230
         H            1.654675130043    -0.850970202324     1.446830529075     1.007825032230
         H            2.249775130043     0.823529797676     1.638830529075     1.007825032230
         H           -4.371124869957    -1.768770202324     0.641730529075     1.007825032230

  Charge       = 0
  Multiplicity = 1
  Basis Set: MINIX
    Blend: MINIX
  Basis Set: (MINIX AUX)
    Blend: DEF2-SVP-JKFIT

    Orbital Energies [Eh]
    ---------------------

    Doubly Occupied:

       1A    -15.396230     2A    -11.232624     3A    -11.214995
       4A    -11.187049     5A    -11.176846     6A    -11.174880
       7A    -11.173331     8A    -11.172827     9A    -11.170300
      10A    -11.170287    11A    -11.170012    12A    -11.154597
      13A    -11.153110    14A    -11.152025    15A     -1.229113
      16A     -1.178214    17A     -1.140924    18A     -1.062340
      19A     -1.027764    20A     -1.013278    21A     -1.001918
      22A     -0.924200    23A     -0.835743    24A     -0.825256
      25A     -0.816579    26A     -0.786722    27A     -0.718873
      28A     -0.707302    29A     -0.674196    30A     -0.654395
      31A     -0.640026    32A     -0.622633    33A     -0.608338
      34A     -0.593361    35A     -0.586246    36A     -0.580447
      37A     -0.572970    38A     -0.554710    39A     -0.533244
      40A     -0.524911    41A     -0.503956    42A     -0.498622
      43A     -0.475244    44A     -0.465942    45A     -0.425073
      46A     -0.355973    47A     -0.346752    48A     -0.342074
      49A     -0.287010

  @DF-RHF Final Energy:  -550.48016500891731

   => Energetics <=

    Nuclear Repulsion Energy =            809.4191860183362905
    One-Electron Energy =               -2350.1718232709190488
    Two-Electron Energy =                 990.2724722436653337
    Total Energy =                       -550.4801650089173108

  Dipole Moment: [D]
     X:     1.2273      Y:     0.8755      Z:     0.4058     Total:     1.5613

  Basis Set: MINIX
    Blend: MINIX

  Mulliken Charges: (a.u.)
   Center  Symbol    Alpha    Beta     Spin     Total
       1     C     3.08746  3.08746  0.00000 -0.17491
       2     C     2.94354  2.94354  0.00000  0.11292
       3     N     3.69628  3.69628  0.00000 -0.39257
       4     H     0.38032  0.38032  0.00000  0.23936
       5     C     3.07168  3.07168  0.00000 -0.14336
       6     C     3.08337  3.08337  0.00000 -0.16674
       7     C     3.05794  3.05794  0.00000 -0.11587
       8     C     3.06139  3.06139  0.00000 -0.12278
       9     C     3.08953  3.08953  0.00000 -0.17905
      10     H     0.43131  0.43131  0.00000  0.13738
      11     H     0.43569  0.43569  0.00000  0.12862
      12     H     0.43172  0.43172  0.00000  0.13657
      13     H     0.43180  0.43180  0.00000  0.13640
      14     C     3.00871  3.00871  0.00000 -0.01742
      15     C     3.07025  3.07025  0.00000 -0.14049
      16     C     3.06438  3.06438  0.00000 -0.12877
      17     C     3.06872  3.06872  0.00000 -0.13744
      18     C     3.07076  3.07076  0.00000 -0.14152
      19     C     3.07135  3.07135  0.00000 -0.14270
      20     H     0.43350  0.43350  0.00000  0.13299
      21     H     0.43203  0.43203  0.00000  0.13594
      22     H     0.42951  0.42951  0.00000  0.14099
      23     H     0.43145  0.43145  0.00000  0.13711
      24     H     0.42882  0.42882  0.00000  0.14237
      25     H     0.43052  0.43052  0.00000  0.13897
      26     H     0.42630  0.42630  0.00000  0.14740
      27     H     0.43169  0.43169  0.00000  0.13662

   Total alpha = 49.00000, Total beta = 49.00000, Total charge =  0.00000

*** Psi4 exiting successfully. Buy a developer a beer!
