                               Psi4 1.3.2 release

  ==> Input File <==

--------------------------------------------------------------------------
molecule {
0 1
H          9.00180       -1.50930        2.09970
C          8.00280       -1.07540        1.90020
C          5.45820        0.01300        1.45740
C          5.83990       -0.47630        2.69740
C          6.39930       -0.06410        0.46320
C          7.09490       -1.01690        2.92680
C          7.66120       -0.60180        0.67160
H          6.14600        0.33410       -0.49780
H          7.34390       -1.39140        3.92730
H          4.52080        0.41180        1.29250
H          5.16520       -0.43640        3.47730
H          8.34000       -0.64240       -0.10470
}
memory 100GB
set_num_threads(12)
psi4_io.set_default_path("/scratch/bdw2292/Psi4-farH_in17")
set maxiter 500
set freeze_core True
set PROPERTIES_ORIGIN ["COM"]
set cubeprop_tasks ['esp']
E, wfn = properties('hf/MINIX',properties=['dipole'],return_wfn=True)
cubeprop(wfn)
fchk(wfn, "farH_in17-esp_frag.fchk")
oeprop(wfn,"WIBERG_LOWDIN_INDICES","MULLIKEN_CHARGES")
clean()
--------------------------------------------------------------------------

    Molecular point group: c1

    Geometry (in Angstrom), charge = 0, multiplicity = 1:

       Center              X                  Y                   Z               Mass
    ------------   -----------------  -----------------  -----------------  -----------------
         H            2.258290471385    -0.972227085295     0.412596655157     1.007825032230
         C            1.259290471385    -0.538327085295     0.213096655157    12.000000000000
         C           -1.285309528615     0.550072914705    -0.229703344843    12.000000000000
         C           -0.903609528615     0.060772914705     1.010296655157    12.000000000000
         C           -0.344209528615     0.472972914705    -1.223903344843    12.000000000000
         C            0.351390471385    -0.479827085295     1.239696655157    12.000000000000
         C            0.917690471385    -0.064727085295    -1.015503344843    12.000000000000
         H           -0.597509528615     0.871172914705    -2.184903344843     1.007825032230
         H            0.600390471385    -0.854327085295     2.240196655157     1.007825032230
         H           -2.222709528615     0.948872914705    -0.394603344843     1.007825032230
         H           -1.578309528615     0.100672914705     1.790196655157     1.007825032230
         H            1.596490471385    -0.105327085295    -1.791803344843     1.007825032230

  Charge       = 0
  Multiplicity = 1
  Basis Set: MINIX
    Blend: MINIX
  Basis Set: (MINIX AUX)
    Blend: DEF2-SVP-JKFIT

    Orbital Energies [Eh]
    ---------------------

    Doubly Occupied:

       1A    -11.181389     2A    -11.180729     3A    -11.179255
       4A    -11.177923     5A    -11.177566     6A    -11.175826
       7A     -1.174716     8A     -1.036452     9A     -1.025990
      10A     -0.836249    11A     -0.828444    12A     -0.727129
      13A     -0.646048    14A     -0.625245    15A     -0.606154
      16A     -0.590524    17A     -0.532921    18A     -0.494222
      19A     -0.488609    20A     -0.360881    21A     -0.352334

  @DF-RHF Final Energy:  -229.10896402865842

   => Energetics <=

    Nuclear Repulsion Energy =            206.4057041149476674
    One-Electron Energy =                -716.2321167207785493
    Two-Electron Energy =                 280.7174485771724903
    Total Energy =                       -229.1089640286584199

  Dipole Moment: [D]
     X:     0.0891      Y:    -0.0397      Z:     0.0810     Total:     0.1268

  Basis Set: MINIX
    Blend: MINIX

  Mulliken Charges: (a.u.)
   Center  Symbol    Alpha    Beta     Spin     Total
       1     H     0.42849  0.42849  0.00000  0.14302
       2     C     3.06702  3.06702  0.00000 -0.13404
       3     C     3.07610  3.07610  0.00000 -0.15219
       4     C     3.06937  3.06937  0.00000 -0.13874
       5     C     3.06500  3.06500  0.00000 -0.12999
       6     C     3.06941  3.06941  0.00000 -0.13882
       7     C     3.07720  3.07720  0.00000 -0.15439
       8     H     0.43038  0.43038  0.00000  0.13924
       9     H     0.42910  0.42910  0.00000  0.14180
      10     H     0.42787  0.42787  0.00000  0.14426
      11     H     0.43106  0.43106  0.00000  0.13787
      12     H     0.42900  0.42900  0.00000  0.14199

   Total alpha = 21.00000, Total beta = 21.00000, Total charge =  0.00000

*** Psi4 exiting successfully. Buy a developer a beer!
