                               Psi4 1.5 release

  ==> Input File <==

--------------------------------------------------------------------------
molecule {
0 1
C 1.994301505923 -0.211658162718 -0.070296222764
N 0.854903800519 0.202013950616 -0.741037545898
C -0.415939995537 0.072106546847 -0.110302560673
C -0.821392755842 -1.156860426859 0.421217566511
C 0.922958378054 0.996407193685 -1.962907062903
C -1.279785269085 1.170915818145 -0.059433328715
C -2.079643554192 -1.272914133620 1.006004313592
C -2.948028257278 -0.181318167235 1.050856279041
C -2.543439866185 1.039792063826 0.514644033957
H -0.148669277917 -2.005268826405 0.383369382297
H -0.960430504540 2.133311974746 -0.450050299208
C 3.316196227787 0.070590793488 -0.754926217849
O 1.947668613211 -0.791803900165 1.013989340357
H -0.034319444208 0.909822433738 -2.477603531360
H 1.124708955613 2.057211137741 -1.771405242654
H 1.698373899559 0.608514206891 -2.623249884001
H -2.387577754466 -2.229719447638 1.419821763945
H -3.207910137145 1.899427732345 0.549243744584
H 3.408947266845 -0.490322372343 -1.689541664875
H 3.444699225443 1.131763109849 -0.983577297371
H -3.930916271418 -0.281514763374 1.503392329719
H 4.101975619080 -0.249206572024 -0.071944689464
}
memory 8.166666666666666GB
set_num_threads(2)
psi4_io.set_default_path("/scratch/bdw2292/Psi4-3_24_Index_0-farH_in17")
set maxiter 500
set freeze_core True
set PROPERTIES_ORIGIN ["COM"]
set cubeprop_tasks ['esp']
set basis aug-cc-pVTZ
E, wfn = properties('mp2',properties=['dipole'],return_wfn=True)
cubeprop(wfn)
fchk(wfn, "3_24_Index_0-esp.fchk")
oeprop(wfn,"GRID_ESP","WIBERG_LOWDIN_INDICES","MULLIKEN_CHARGES")
clean()
--------------------------------------------------------------------------

    Molecular point group: c1
  Charge       = 0
  Multiplicity = 1
  Basis Set: AUG-CC-PVTZ
    Blend: AUG-CC-PVTZ
  Basis Set: (AUG-CC-PVTZ AUX)
    Blend: AUG-CC-PVTZ-JKFIT

    Orbital Energies [Eh]
    ---------------------

    Doubly Occupied:

       1A    -20.519004     2A    -15.598204     3A    -11.356074
       4A    -11.277705     5A    -11.276394     6A    -11.240644
       7A    -11.237355     8A    -11.235749     9A    -11.234269
      10A    -11.231215    11A    -11.229754    12A     -1.377416
      13A     -1.260116    14A     -1.143042    15A     -1.030881
      16A     -1.016331    17A     -0.993934    18A     -0.953372
      19A     -0.842157    20A     -0.826780    21A     -0.755328
      22A     -0.696065    23A     -0.680128    24A     -0.662314
      25A     -0.657584    26A     -0.618591    27A     -0.613195
      28A     -0.588120    29A     -0.584354    30A     -0.577274
      31A     -0.564825    32A     -0.559046    33A     -0.523537
      34A     -0.510984    35A     -0.497226    36A     -0.495948
      37A     -0.423651    38A     -0.405521    39A     -0.335901
      40A     -0.315215

  @DF-RHF Final Energy:  -476.70112050583157

   => Energetics <=

    Nuclear Repulsion Energy =            589.6900823693202938
    One-Electron Energy =               -1816.8920009179912540
    Two-Electron Energy =                 750.5007980428395058
    Total Energy =                       -476.7011205058315682
  Basis Set: (AUG-CC-PVTZ AUX)
    Blend: AUG-CC-PVTZ-RI
    Molecular point group: c1

    Geometry (in Angstrom), charge = 0, multiplicity = 1:

       Center              X                  Y                   Z               Mass
    ------------   -----------------  -----------------  -----------------  -----------------
         C            1.994301505923    -0.211658162718    -0.070296222764    12.000000000000
         N            0.854903800519     0.202013950616    -0.741037545898    14.003074004430
         C           -0.415939995537     0.072106546847    -0.110302560673    12.000000000000
         C           -0.821392755842    -1.156860426859     0.421217566511    12.000000000000
         C            0.922958378054     0.996407193685    -1.962907062903    12.000000000000
         C           -1.279785269085     1.170915818145    -0.059433328715    12.000000000000
         C           -2.079643554192    -1.272914133620     1.006004313592    12.000000000000
         C           -2.948028257278    -0.181318167235     1.050856279041    12.000000000000
         C           -2.543439866185     1.039792063826     0.514644033957    12.000000000000
         H           -0.148669277917    -2.005268826405     0.383369382297     1.007825032230
         H           -0.960430504540     2.133311974746    -0.450050299208     1.007825032230
         C            3.316196227787     0.070590793488    -0.754926217849    12.000000000000
         O            1.947668613211    -0.791803900165     1.013989340357    15.994914619570
         H           -0.034319444208     0.909822433738    -2.477603531360     1.007825032230
         H            1.124708955613     2.057211137741    -1.771405242654     1.007825032230
         H            1.698373899559     0.608514206891    -2.623249884001     1.007825032230
         H           -2.387577754466    -2.229719447638     1.419821763945     1.007825032230
         H           -3.207910137145     1.899427732345     0.549243744584     1.007825032230
         H            3.408947266845    -0.490322372343    -1.689541664875     1.007825032230
         H            3.444699225443     1.131763109849    -0.983577297371     1.007825032230
         H           -3.930916271418    -0.281514763374     1.503392329719     1.007825032230
         H            4.101975619080    -0.249206572024    -0.071944689464     1.007825032230

  Basis Set: AUG-CC-PVTZ
    Blend: AUG-CC-PVTZ
  Basis Set: (AUG-CC-PVTZ AUX)
    Blend: AUG-CC-PVTZ-JKFIT
	 Reference Energy          =    -476.7011205058315682 [Eh]
	 Singles Energy            =      -0.0000000000000000 [Eh]
	 Same-Spin Energy          =      -0.4820098862090970 [Eh]
	 Opposite-Spin Energy      =      -1.4415097851831249 [Eh]
	 Correlation Energy        =      -1.9235196713922220 [Eh]
	 Total Energy              =    -478.6246401772237959 [Eh]

	 ================> DF-SCS-MP2 Energies <==================
	-----------------------------------------------------------
	 SCS Same-Spin Scale       =       0.3333333333333333 [-]
	 SCS Opposite-Spin Scale   =       1.2000000000000000 [-]
	 SCS Same-Spin Energy      =      -0.1606699620696990 [Eh]
	 SCS Opposite-Spin Energy  =      -1.7298117422197499 [Eh]
	 SCS Correlation Energy    =      -1.8904817042894488 [Eh]
	 SCS Total Energy          =    -478.5916022101210388 [Eh]
	-----------------------------------------------------------

  Dipole Moment: [D]
     X:    -0.2413      Y:     1.7352      Z:    -3.1746     Total:     3.6260

  Basis Set: AUG-CC-PVTZ
    Blend: AUG-CC-PVTZ

  Mulliken Charges: (a.u.)
   Center  Symbol    Alpha    Beta     Spin     Total
       1     C     3.00639  3.00639  0.00000 -0.01278
       2     N     3.33096  3.33096  0.00000  0.33808
       3     C     2.45013  2.45013  0.00000  1.09974
       4     C     3.32964  3.32964  0.00000 -0.65927
       5     C     3.53256  3.53256  0.00000 -1.06511
       6     C     3.29135  3.29135  0.00000 -0.58270
       7     C     3.33190  3.33190  0.00000 -0.66380
       8     C     3.15457  3.15457  0.00000 -0.30914
       9     C     3.34448  3.34448  0.00000 -0.68895
      10     H     0.26559  0.26559  0.00000  0.46883
      11     H     0.32152  0.32152  0.00000  0.35696
      12     C     3.37093  3.37093  0.00000 -0.74186
      13     O     4.37531  4.37531  0.00000 -0.75061
      14     H     0.33936  0.33936  0.00000  0.32129
      15     H     0.30281  0.30281  0.00000  0.39439
      16     H     0.32494  0.32494  0.00000  0.35012
      17     H     0.31391  0.31391  0.00000  0.37217
      18     H     0.28806  0.28806  0.00000  0.42387
      19     H     0.35086  0.35086  0.00000  0.29828
      20     H     0.36124  0.36124  0.00000  0.27751
      21     H     0.26646  0.26646  0.00000  0.46708
      22     H     0.34705  0.34705  0.00000  0.30590

   Total alpha = 40.00000, Total beta = 40.00000, Total charge = -0.00000

*** Psi4 exiting successfully. Buy a developer a beer!
