                               Psi4 1.5 release

  ==> Input File <==

--------------------------------------------------------------------------
molecule {
0 1
 C    4.273600   -0.723800   -0.772300
 N    3.143600   -0.079700   -1.318400
 C    1.830800   -0.220300   -0.728700
 C    1.461500   -1.339200    0.021200
 C    3.256100    0.841600   -2.453100
 C    0.850600    0.767300   -0.906100
 C    0.175900   -1.455600    0.573900
 C   -0.798700   -0.461700    0.408600
 C   -0.435200    0.645900   -0.349200
 H    2.134700   -2.177400    0.171200
 H    1.053800    1.682700   -1.453900
 C    5.632700   -0.415400   -1.457400
 O    4.248400   -1.467100    0.213100
 H    2.362000    0.793400   -3.083100
 H    3.406300    1.856200   -2.071600
 H    4.095600    0.583600   -3.101400
 H   -0.061300   -2.359000    1.133800
 H   -1.120700    1.468400   -0.508800
 H    5.593600   -0.894100   -2.443000
 H    5.761300    0.665700   -1.577200
 H   -1.737800   -0.547700    0.827800
 H    6.451500   -0.778500   -0.872100
}
set {
  geom_maxiter 400
  g_convergence GAU
  dynamic_level 1
}
memory 8.166666666666666GB
set_num_threads(2)
psi4_io.set_default_path("/scratch/bdw2292/Psi4-3_24_Index_0-farH_in17")
for _ in range(1):
  try:
    set opt_coordinates both
    optimize('mp2/6-31G*')
    break
  except:
    break
  else:
    try:
      set opt_coordinates cartesian
      optimize('mp2/6-31G*')
      break
    except:
      pass
clean()
--------------------------------------------------------------------------

    Molecular point group: c1
  Charge       = 0
  Multiplicity = 1
  Basis Set: 6-31G*
    Blend: 6-31G*
  Basis Set: (6-31G* AUX)
    Blend: CC-PVDZ-JKFIT
  @DF-RHF Final Energy:  -476.52262277132661
    Total Energy =                       -476.5226227713266098
  Basis Set: (6-31G* AUX)
    Blend: CC-PVDZ-RI
    Molecular point group: c1
  Basis Set: 6-31G*
    Blend: 6-31G*
  Basis Set: (6-31G* AUX)
    Blend: CC-PVDZ-JKFIT
  Basis Set: (6-31G* AUX)
    Blend: CC-PVDZ-JKFIT
	 Reference Energy          =    -476.5226227713266098 [Eh]
	 Singles Energy            =      -0.0000000000000000 [Eh]
	 Same-Spin Energy          =      -0.4074277279829019 [Eh]
	 Opposite-Spin Energy      =      -1.1328019250636228 [Eh]
	 Correlation Energy        =      -1.5402296530465247 [Eh]
	 Total Energy              =    -478.0628524243731476 [Eh]
	 SCS Total Energy          =    -478.0177943240639138 [Eh]
  @DF-RHF Final Energy:  -476.53105975718483
    Total Energy =                       -476.5310597571848348
  @DF-RHF Final Energy:  -476.52907183232969
    Total Energy =                       -476.5290718323296915
  @DF-RHF Final Energy:  -476.53241455976956
    Total Energy =                       -476.5324145597695633
  @DF-RHF Final Energy:  -476.53438037318796
    Total Energy =                       -476.5343803731880143
  @DF-RHF Final Energy:  -476.53413130325566
    Total Energy =                       -476.5341313032556627
  @DF-RHF Final Energy:  -476.53401229402198
    Total Energy =                       -476.5340122940219771
  @DF-RHF Final Energy:  -476.53411911501018
    Total Energy =                       -476.5341191150101849
  Charge       = 0
  Multiplicity = 1
  Basis Set: 6-31G*
    Blend: 6-31G*
  Basis Set: (6-31G* AUX)
    Blend: CC-PVDZ-JKFIT

    Orbital Energies [Eh]
    ---------------------

    Doubly Occupied:

       1A    -20.523509     2A    -15.599437     3A    -11.356462
       4A    -11.276080     5A    -11.274717     6A    -11.239197
       7A    -11.235171     8A    -11.233734     9A    -11.231872
      10A    -11.229459    11A    -11.227336    12A     -1.372995
      13A     -1.255990    14A     -1.137949    15A     -1.027585
      16A     -1.011483    17A     -0.991150    18A     -0.950767
      19A     -0.837785    20A     -0.821878    21A     -0.751116
      22A     -0.691689    23A     -0.675733    24A     -0.658125
      25A     -0.653335    26A     -0.614979    27A     -0.608056
      28A     -0.585496    29A     -0.580442    30A     -0.573159
      31A     -0.561975    32A     -0.556960    33A     -0.518576
      34A     -0.506018    35A     -0.491800    36A     -0.490316
      37A     -0.416203    38A     -0.398452    39A     -0.329656
      40A     -0.308516

  @DF-RHF Final Energy:  -476.53414084743247

   => Energetics <=

    Nuclear Repulsion Energy =            589.6900823692951690
    One-Electron Energy =               -1816.8381298734266238
    Two-Electron Energy =                 750.6139066566989868
    Total Energy =                       -476.5341408474324680

  Dipole Moment: [D]
     X:    -0.1171      Y:     1.8550      Z:    -3.5108     Total:     3.9725

  Basis Set: (6-31G* AUX)
    Blend: CC-PVDZ-RI
    Molecular point group: c1
  Basis Set: 6-31G*
    Blend: 6-31G*
  Basis Set: (6-31G* AUX)
    Blend: CC-PVDZ-JKFIT
  Basis Set: (6-31G* AUX)
    Blend: CC-PVDZ-JKFIT
	 Reference Energy          =    -476.5341408474324680 [Eh]
	 Singles Energy            =      -0.0000000000000000 [Eh]
	 Same-Spin Energy          =      -0.4074356789466910 [Eh]
	 Opposite-Spin Energy      =      -1.1313590580123556 [Eh]
	 Correlation Energy        =      -1.5387947369590467 [Eh]
	 Total Energy              =    -478.0729355843915300 [Eh]

	 ================> DF-SCS-MP2 Energies <==================
	-----------------------------------------------------------
	 SCS Same-Spin Scale       =       0.3333333333333333 [-]
	 SCS Opposite-Spin Scale   =       1.2000000000000000 [-]
	 SCS Same-Spin Energy      =      -0.1358118929822303 [Eh]
	 SCS Opposite-Spin Energy  =      -1.3576308696148267 [Eh]
	 SCS Correlation Energy    =      -1.4934427625970570 [Eh]
	 SCS Total Energy          =    -478.0275836100295237 [Eh]
	-----------------------------------------------------------

  -Total Gradient:
     Atom            X                  Y                   Z
    ------   -----------------  -----------------  -----------------
       1       -0.000008982408     0.000001019369     0.000050550587
       2        0.000047666338     0.000035909788    -0.000027289937
       3       -0.000101003687    -0.000015586428    -0.000024612227
       4        0.000060030648     0.000013143675    -0.000007309542
       5       -0.000021245984    -0.000016452225     0.000006124891
       6        0.000023781518     0.000003722992    -0.000010697369
       7       -0.000022583249     0.000033244970     0.000009070856
       8        0.000032856036    -0.000014107223    -0.000020444552
       9        0.000004320296    -0.000024649855     0.000027869023
      10       -0.000014564253     0.000016502146     0.000007091027
      11        0.000008269468    -0.000021776107     0.000011935340
      12        0.000021058147    -0.000033621541     0.000018111911
      13       -0.000008410265     0.000009624392    -0.000044048099
      14        0.000004510310     0.000002087832    -0.000002061434
      15        0.000008438167    -0.000001496599     0.000004154911
      16        0.000002971813     0.000007200390    -0.000012881223
      17       -0.000012606427     0.000013608826     0.000005064961
      18       -0.000003459198    -0.000013535915     0.000003078061
      19        0.000000450669     0.000001681479     0.000002563688
      20       -0.000008109899     0.000004940261    -0.000001162796
      21       -0.000025389844    -0.000006945545     0.000011731801
      22        0.000012001805     0.000005485316    -0.000006839881

  **** Optimization is complete! (in 9 steps) ****
    Final optimized geometry and variables:
    Molecular point group: c1

    Geometry (in Angstrom), charge = 0, multiplicity = 1:

    C            1.994301505923    -0.211658162718    -0.070296222764
    N            0.854903800519     0.202013950616    -0.741037545898
    C           -0.415939995537     0.072106546847    -0.110302560673
    C           -0.821392755842    -1.156860426859     0.421217566511
    C            0.922958378054     0.996407193685    -1.962907062903
    C           -1.279785269085     1.170915818145    -0.059433328715
    C           -2.079643554192    -1.272914133620     1.006004313592
    C           -2.948028257278    -0.181318167235     1.050856279041
    C           -2.543439866185     1.039792063826     0.514644033957
    H           -0.148669277917    -2.005268826405     0.383369382297
    H           -0.960430504540     2.133311974746    -0.450050299208
    C            3.316196227787     0.070590793488    -0.754926217849
    O            1.947668613211    -0.791803900165     1.013989340357
    H           -0.034319444208     0.909822433738    -2.477603531360
    H            1.124708955613     2.057211137741    -1.771405242654
    H            1.698373899559     0.608514206891    -2.623249884001
    H           -2.387577754466    -2.229719447638     1.419821763945
    H           -3.207910137145     1.899427732345     0.549243744584
    H            3.408947266845    -0.490322372343    -1.689541664875
    H            3.444699225443     1.131763109849    -0.983577297371
    H           -3.930916271418    -0.281514763374     1.503392329719
    H            4.101975619080    -0.249206572024    -0.071944689464

*** Psi4 exiting successfully. Buy a developer a beer!
