                               Psi4 1.3.2 release

  ==> Input File <==

--------------------------------------------------------------------------
molecule {
0 1
C         -5.39960       -1.30330       -0.41360
C         -4.15550       -0.51950       -0.13450
N         -2.88880       -1.10540       -0.07100
C         -2.79090       -2.55700       -0.33120
C         -1.67290       -0.44230        0.21710
C          0.81870        0.79670        0.73960
C          0.76840       -0.39010        0.07510
C         -0.38080        1.37730        1.15150
C         -0.45250       -0.99130       -0.17810
C         -1.58120        0.75890        0.88810
O         -4.29600        0.70990        0.04690
H         -2.17240       -3.04390        0.42450
H         -2.33400       -2.65370       -1.32860
H         -3.80720       -3.03690       -0.27370
N         -6.53810       -0.48150       -0.39510
H         -5.54410       -2.13730        0.30810
H         -5.24070       -1.74240       -1.43810
H          1.69470       -0.88110       -0.25600
H         -0.33620        2.31250        1.67300
H         -0.49600       -1.93920       -0.70890
H         -2.48410        1.26410        1.24600
N          2.01500        1.48570        1.02620
C         -6.95280        0.08910        0.82430
C         -7.06200        0.02090       -1.60130
H          2.04670        2.35900        1.59500
H         -6.37020        1.01670        1.06340
H         -6.70880       -0.63220        1.65040
H         -7.17230       -0.79300       -2.34110
H         -6.38110        0.82340       -2.01090
H          2.86020        1.12530        0.67260
H         -7.99610        0.31140        0.74040
H         -8.02640        0.44240       -1.40830
}
memory 100GB
set_num_threads(12)
psi4_io.set_default_path("/scratch/bdw2292/Psi4-farH_in17")
set maxiter 500
set freeze_core True
set PROPERTIES_ORIGIN ["COM"]
set cubeprop_tasks ['esp']
E, wfn = properties('hf/MINIX',properties=['dipole'],return_wfn=True)
cubeprop(wfn)
fchk(wfn, "farH_in17-esp_frag.fchk")
oeprop(wfn,"WIBERG_LOWDIN_INDICES","MULLIKEN_CHARGES")
clean()
--------------------------------------------------------------------------

    Molecular point group: c1

    Geometry (in Angstrom), charge = 0, multiplicity = 1:

       Center              X                  Y                   Z               Mass
    ------------   -----------------  -----------------  -----------------  -----------------
         C           -2.610326238977    -1.133119046450    -0.524840368581    12.000000000000
         C           -1.366226238977    -0.349319046450    -0.245740368581    12.000000000000
         N           -0.099526238977    -0.935219046450    -0.182240368581    14.003074004430
         C           -0.001626238977    -2.386819046450    -0.442440368581    12.000000000000
         C            1.116373761023    -0.272119046450     0.105859631419    12.000000000000
         C            3.607973761023     0.966880953550     0.628359631419    12.000000000000
         C            3.557673761023    -0.219919046450    -0.036140368581    12.000000000000
         C            2.408473761023     1.547480953550     1.040259631419    12.000000000000
         C            2.336773761023    -0.821119046450    -0.289340368581    12.000000000000
         C            1.208073761023     0.929080953550     0.776859631419    12.000000000000
         O           -1.506726238977     0.880080953550    -0.064340368581    15.994914619570
         H            0.616873761023    -2.873719046450     0.313259631419     1.007825032230
         H            0.455273761023    -2.483519046450    -1.439840368581     1.007825032230
         H           -1.017926238977    -2.866719046450    -0.384940368581     1.007825032230
         N           -3.748826238977    -0.311319046450    -0.506340368581    14.003074004430
         H           -2.754826238977    -1.967119046450     0.196859631419     1.007825032230
         H           -2.451426238977    -1.572219046450    -1.549340368581     1.007825032230
         H            4.483973761023    -0.710919046450    -0.367240368581     1.007825032230
         H            2.453073761023     2.482680953550     1.561759631419     1.007825032230
         H            2.293273761023    -1.769019046450    -0.820140368581     1.007825032230
         H            0.305173761023     1.434280953550     1.134759631419     1.007825032230
         N            4.804273761023     1.655880953550     0.914959631419    14.003074004430
         C           -4.163526238977     0.259280953550     0.713059631419    12.000000000000
         C           -4.272726238977     0.191080953550    -1.712540368581    12.000000000000
         H            4.835973761023     2.529180953550     1.483759631419     1.007825032230
         H           -3.580926238977     1.186880953550     0.952159631419     1.007825032230
         H           -3.919526238977    -0.462019046450     1.539159631419     1.007825032230
         H           -4.383026238977    -0.622819046450    -2.452340368581     1.007825032230
         H           -3.591826238977     0.993580953550    -2.122140368581     1.007825032230
         H            5.649473761023     1.295480953550     0.561359631419     1.007825032230
         H           -5.206826238977     0.481580953550     0.629159631419     1.007825032230
         H           -5.237126238977     0.612580953550    -1.519540368581     1.007825032230

  Charge       = 0
  Multiplicity = 1
  Basis Set: MINIX
    Blend: MINIX
  Basis Set: (MINIX AUX)
    Blend: DEF2-SVP-JKFIT

    Orbital Energies [Eh]
    ---------------------

    Doubly Occupied:

       1A    -20.264312     2A    -15.443185     3A    -15.381382
       4A    -15.365754     5A    -11.296867     6A    -11.225810
       7A    -11.215585     8A    -11.213664     9A    -11.205891
      10A    -11.175377    11A    -11.167663    12A    -11.164710
      13A    -11.161372    14A    -11.157693    15A    -11.151243
      16A     -1.356470    17A     -1.239107    18A     -1.228028
      19A     -1.196060    20A     -1.117378    21A     -1.016072
      22A     -1.013045    23A     -0.980721    24A     -0.952967
      25A     -0.938136    26A     -0.844103    27A     -0.829382
      28A     -0.791587    29A     -0.738569    30A     -0.698373
      31A     -0.686748    32A     -0.670129    33A     -0.661612
      34A     -0.643202    35A     -0.636606    36A     -0.628438
      37A     -0.608786    38A     -0.598578    39A     -0.580688
      40A     -0.569259    41A     -0.552453    42A     -0.549008
      43A     -0.543646    44A     -0.538207    45A     -0.528467
      46A     -0.512696    47A     -0.509078    48A     -0.498632
      49A     -0.491171    50A     -0.471345    51A     -0.444032
      52A     -0.386685    53A     -0.364486    54A     -0.344568
      55A     -0.305000    56A     -0.264247

  @DF-RHF Final Energy:  -660.04525962503863

   => Energetics <=

    Nuclear Repulsion Energy =            993.1630594012606252
    One-Electron Energy =               -2870.1801530243442357
    Two-Electron Energy =                1216.9718339980449855
    Total Energy =                       -660.0452596250386250

  Dipole Moment: [D]
     X:     1.4259      Y:    -2.5317      Z:    -0.1583     Total:     2.9099

  Basis Set: MINIX
    Blend: MINIX

  Mulliken Charges: (a.u.)
   Center  Symbol    Alpha    Beta     Spin     Total
       1     C     3.06489  3.06489  0.00000 -0.12979
       2     C     2.81317  2.81317  0.00000  0.37366
       3     N     3.65997  3.65997  0.00000 -0.31994
       4     C     3.12013  3.12013  0.00000 -0.24025
       5     C     2.96138  2.96138  0.00000  0.07725
       6     C     2.94840  2.94840  0.00000  0.10321
       7     C     3.08619  3.08619  0.00000 -0.17238
       8     C     3.08021  3.08021  0.00000 -0.16043
       9     C     3.06713  3.06713  0.00000 -0.13425
      10     C     3.06451  3.06451  0.00000 -0.12902
      11     O     4.21301  4.21301  0.00000 -0.42603
      12     H     0.43028  0.43028  0.00000  0.13944
      13     H     0.43355  0.43355  0.00000  0.13290
      14     H     0.43056  0.43056  0.00000  0.13888
      15     N     3.66913  3.66913  0.00000 -0.33826
      16     H     0.43213  0.43213  0.00000  0.13575
      17     H     0.42809  0.42809  0.00000  0.14381
      18     H     0.43329  0.43329  0.00000  0.13342
      19     H     0.43391  0.43391  0.00000  0.13219
      20     H     0.43414  0.43414  0.00000  0.13172
      21     H     0.41586  0.41586  0.00000  0.16828
      22     N     3.75285  3.75285  0.00000 -0.50569
      23     C     3.11739  3.11739  0.00000 -0.23477
      24     C     3.11801  3.11801  0.00000 -0.23603
      25     H     0.37906  0.37906  0.00000  0.24189
      26     H     0.43319  0.43319  0.00000  0.13363
      27     H     0.44144  0.44144  0.00000  0.11712
      28     H     0.44109  0.44109  0.00000  0.11782
      29     H     0.43958  0.43958  0.00000  0.12084
      30     H     0.38225  0.38225  0.00000  0.23550
      31     H     0.43903  0.43903  0.00000  0.12194
      32     H     0.43620  0.43620  0.00000  0.12760

   Total alpha = 56.00000, Total beta = 56.00000, Total charge =  0.00000

*** Psi4 exiting successfully. Buy a developer a beer!
