                               Psi4 1.3.2 release

  ==> Input File <==

--------------------------------------------------------------------------
molecule {
0 1
 Cl                 -1.6165076    -0.1445430    -0.0459072
 Cl                  1.2931214     0.2390112    -0.0222988
  C                 -0.0333139    -0.9299819     0.0416379
  H                  0.0307675    -1.4731636     0.9845730
  H                  0.0628634    -1.6089770    -0.8056818
--
0 1
  O                 -0.4685926     3.8633954    -0.0017160
  H                 -0.5560658     2.9365824     0.2244317
  H                  0.0828986     3.9243692    -0.7812593
}
memory 15GB
set_num_threads(4)
psi4_io.set_default_path("/scratch/bdw2292/Psi4-CH2Cl2")
set maxiter 500
set freeze_core True
set PROPERTIES_ORIGIN ["COM"]
e_dim= energy('mp2/aug-cc-pV[TQ]Z',bsse_type='cp')

psi4.print_out('CP Energy = %10.6f' % (e_dim))
clean()
--------------------------------------------------------------------------

    Molecular point group: c1
  Charge       = 0
  Multiplicity = 1
  Basis Set: AUG-CC-PVTZ
    Blend: AUG-CC-PVTZ
  Basis Set: (AUG-CC-PVTZ AUX)
    Blend: AUG-CC-PVTZ-JKFIT
  @DF-RHF Final Energy:   -76.06051173720452
    Total Energy =                        -76.0605117372045072
  Basis Set: (AUG-CC-PVTZ AUX)
    Blend: AUG-CC-PVTZ-RI
	 Reference Energy          =     -76.0605117372045214 [Eh]
	 Singles Energy            =      -0.0000000000000000 [Eh]
	 Same-Spin Energy          =      -0.0650989661704044 [Eh]
	 Opposite-Spin Energy      =      -0.2029943208699226 [Eh]
	 Correlation Energy        =      -0.2680932870403270 [Eh]
	 Total Energy              =     -76.3286050242448511 [Eh]
	 SCS Total Energy          =     -76.3258045776385643 [Eh]
    Molecular point group: c1
  Basis Set: AUG-CC-PVQZ
    Blend: AUG-CC-PVQZ
  Basis Set: (AUG-CC-PVQZ AUX)
    Blend: AUG-CC-PVQZ-JKFIT
  @DF-RHF Final Energy:   -76.06590011271548
    Total Energy =                        -76.0659001127154824
  Basis Set: (AUG-CC-PVQZ AUX)
  @DF-RHF Final Energy:   -76.06053401840775
    Total Energy =                        -76.0605340184077505
  @DF-RHF Final Energy:   -76.06591113699108
    Total Energy =                        -76.0659111369910761
  @DF-RHF Final Energy:  -958.07893834949675
    Total Energy =                       -958.0789383494966387
  @DF-RHF Final Energy:  -958.08860694959731
    Total Energy =                       -958.0886069495973061
  @DF-RHF Final Energy:  -958.07888784189970
    Total Energy =                       -958.0788878418997001
  @DF-RHF Final Energy:  -958.08859704436043
    Total Energy =                       -958.0885970443604265
  Multiplicity = 1
  @DF-RHF Final Energy: -1034.14077030690532
    Total Energy =                      -1034.1407703069053241
	 Singles Energy            =      -0.0000000000000000 [Eh]
	 Same-Spin Energy          =      -0.2030457311009009 [Eh]
	 Opposite-Spin Energy      =      -0.6324770839017453 [Eh]
	 Correlation Energy        =      -0.8355228150026461 [Eh]
	 Total Energy              =   -1034.9762931219079292 [Eh]
	 SCS Total Energy          =   -1034.9674247179543727 [Eh]
    Molecular point group: c1

    Geometry (in Angstrom), charge = 0, multiplicity = 1:

       Center              X                  Y                   Z               Mass
    ------------   -----------------  -----------------  -----------------  -----------------
         CL          -1.424421850671    -0.710887659834    -0.023411283783    34.968852682000
         CL           1.485207149329    -0.327333459834     0.000197116217    34.968852682000
         C            0.158771849329    -1.496326559834     0.064133816217    12.000000000000
         H            0.222853249329    -2.039508259834     1.007068916217     1.007825032230
         H            0.254949149329    -2.175321659834    -0.783185883783     1.007825032230
         O           -0.276506850671     3.297050740166     0.020779916217    15.994914619570
         H           -0.363980050671     2.370237740166     0.246927616217     1.007825032230
         H            0.274984349329     3.358024540166    -0.758763383783     1.007825032230

  Charge       = 0
  Multiplicity = 1
  Basis Set: AUG-CC-PVQZ
    Blend: AUG-CC-PVQZ
  Basis Set: (AUG-CC-PVQZ AUX)
    Blend: AUG-CC-PVQZ-JKFIT

    Orbital Energies [Eh]
    ---------------------

    Doubly Occupied:

       1A   -104.858370     2A   -104.857903     3A    -20.550873
       4A    -11.374156     5A    -10.584013     6A    -10.583506
       7A     -8.051080     8A     -8.050570     9A     -8.049286
      10A     -8.049187    11A     -8.048771    12A     -8.048671
      13A     -1.338373    14A     -1.202380    15A     -1.106401
      16A     -0.904128    17A     -0.712209    18A     -0.682746
      19A     -0.627162    20A     -0.595098    21A     -0.567376
      22A     -0.497721    23A     -0.483771    24A     -0.482435
      25A     -0.458050    26A     -0.455772

  @DF-RHF Final Energy: -1034.15582444951337

   => Energetics <=

    Nuclear Repulsion Energy =            197.3073015971362452
    One-Electron Energy =               -1820.4862336820260680
    Two-Electron Energy =                 589.0231076353763910
    Total Energy =                      -1034.1558244495133749

  Dipole Moment: [D]
     X:     1.0305      Y:    -3.5673      Z:    -0.7863     Total:     3.7955

  Basis Set: (AUG-CC-PVQZ AUX)
    Blend: AUG-CC-PVQZ-RI
	 Reference Energy          =   -1034.1558244495133749 [Eh]
	 Singles Energy            =      -0.0000000000000000 [Eh]
	 Same-Spin Energy          =      -0.2094799653170835 [Eh]
	 Opposite-Spin Energy      =      -0.6865123991847212 [Eh]
	 Correlation Energy        =      -0.8959923645018047 [Eh]
	 Total Energy              =   -1035.0518168140151829 [Eh]

	 ================> DF-SCS-MP2 Energies <==================
	-----------------------------------------------------------
	 SCS Same-Spin Scale       =       0.3333333333333333 [-]
	 SCS Opposite-Spin Scale   =       1.2000000000000000 [-]
	 SCS Same-Spin Energy      =      -0.0698266551056945 [Eh]
	 SCS Opposite-Spin Energy  =      -0.8238148790216654 [Eh]
	 SCS Correlation Energy    =      -0.8936415341273599 [Eh]
	 SCS Total Energy          =   -1035.0494659836406299 [Eh]
	-----------------------------------------------------------

*** Psi4 exiting successfully. Buy a developer a beer!
