                               Psi4 1.3.2 release

  ==> Input File <==

--------------------------------------------------------------------------
molecule {
0 1
 Cl                 -1.5388435    -0.1931364     0.6760242
 Cl                  1.2369893     0.3960644    -0.1472336
  C                  0.0155402    -0.8508783     0.1416569
  H                  0.3883584    -1.5173747     0.9193488
  H                 -0.1425503    -1.3959932    -0.7887828
--
0 1
 Cl                 -4.0976016     3.6651996    -3.4754847
 Cl                 -1.1681745     3.3303399    -3.3176990
  C                 -2.7443689     2.5286114    -3.3798419
  H                 -2.8600387     1.9354239    -2.4732246
  H                 -2.7693322     1.8925037    -4.2644902
}
memory 15GB
set_num_threads(4)
psi4_io.set_default_path("/scratch/bdw2292/Psi4-CH2Cl2")
set maxiter 500
set freeze_core True
set PROPERTIES_ORIGIN ["COM"]
e_dim= energy('mp2/aug-cc-pV[TQ]Z',bsse_type='cp')

psi4.print_out('CP Energy = %10.6f' % (e_dim))
clean()
--------------------------------------------------------------------------

    Molecular point group: c1
  Charge       = 0
  Multiplicity = 1
  Basis Set: AUG-CC-PVTZ
    Blend: AUG-CC-PVTZ
  Basis Set: (AUG-CC-PVTZ AUX)
    Blend: AUG-CC-PVTZ-JKFIT
  @DF-RHF Final Energy:  -958.07889657880264
    Total Energy =                       -958.0788965788026417
  Basis Set: (AUG-CC-PVTZ AUX)
    Blend: AUG-CC-PVTZ-RI
	 Reference Energy          =    -958.0788965788026417 [Eh]
	 Singles Energy            =      -0.0000000000000000 [Eh]
	 Same-Spin Energy          =      -0.1372550633999475 [Eh]
	 Opposite-Spin Energy      =      -0.4286502501255647 [Eh]
	 Correlation Energy        =      -0.5659053135255121 [Eh]
	 Total Energy              =    -958.6448018923281325 [Eh]
	 SCS Total Energy          =    -958.6390285667532680 [Eh]
    Molecular point group: c1
  Basis Set: AUG-CC-PVQZ
    Blend: AUG-CC-PVQZ
  Basis Set: (AUG-CC-PVQZ AUX)
    Blend: AUG-CC-PVQZ-JKFIT
  @DF-RHF Final Energy:  -958.08860315419452
    Total Energy =                       -958.0886031541945158
  Basis Set: (AUG-CC-PVQZ AUX)
  @DF-RHF Final Energy:  -958.07891094064439
    Total Energy =                       -958.0789109406443913
  @DF-RHF Final Energy:  -958.08861067874034
    Total Energy =                       -958.0886106787403378
  @DF-RHF Final Energy:  -958.07889707426853
    Total Energy =                       -958.0788970742685251
  @DF-RHF Final Energy:  -958.08858851649802
    Total Energy =                       -958.0885885164980209
  @DF-RHF Final Energy:  -958.07887433667474
    Total Energy =                       -958.0788743366747440
  @DF-RHF Final Energy:  -958.08857991722596
    Total Energy =                       -958.0885799172259567
  Multiplicity = 1
  @DF-RHF Final Energy: -1916.15782129025729
    Total Energy =                      -1916.1578212902572886
	 Singles Energy            =      -0.0000000000000000 [Eh]
	 Same-Spin Energy          =      -0.2749797897941648 [Eh]
	 Opposite-Spin Energy      =      -0.8579268865569762 [Eh]
	 Correlation Energy        =      -1.1329066763511411 [Eh]
	 Total Energy              =   -1917.2907279666085287 [Eh]
	 SCS Total Energy          =   -1917.2789934840570822 [Eh]
    Molecular point group: c1

    Geometry (in Angstrom), charge = 0, multiplicity = 1:

       Center              X                  Y                   Z               Mass
    ------------   -----------------  -----------------  -----------------  -----------------
         CL          -0.151970537552    -1.817709125597     2.251754604449    34.968852682000
         CL           2.623862262448    -1.228508325597     1.428496804449    34.968852682000
         C            1.402413162448    -2.475451025597     1.717387304449    12.000000000000
         H            1.775231362448    -3.141947425597     2.495079204449     1.007825032230
         H            1.244322662448    -3.020565925597     0.786947604449     1.007825032230
         CL          -2.710728637552     2.040626874403    -1.899754295551    34.968852682000
         CL           0.218698462448     1.705767174403    -1.741968595551    34.968852682000
         C           -1.357495937552     0.904038674403    -1.804111495551    12.000000000000
         H           -1.473165737552     0.310851174403    -0.897494195551     1.007825032230
         H           -1.382459237552     0.267930974403    -2.688759795551     1.007825032230

  Charge       = 0
  Multiplicity = 1
  Basis Set: AUG-CC-PVQZ
    Blend: AUG-CC-PVQZ
  Basis Set: (AUG-CC-PVQZ AUX)
    Blend: AUG-CC-PVQZ-JKFIT

    Orbital Energies [Eh]
    ---------------------

    Doubly Occupied:

       1A   -104.853405     2A   -104.850843     3A   -104.845295
       4A   -104.844412     5A    -11.369016     6A    -11.361707
       7A    -10.578965     8A    -10.576376     9A    -10.570862
      10A    -10.569971    11A     -8.046035    12A     -8.044241
      13A     -8.044154    14A     -8.043447    15A     -8.041628
      16A     -8.041535    17A     -8.037934    18A     -8.037043
      19A     -8.036135    20A     -8.036042    21A     -8.035236
      22A     -8.035142    23A     -1.195516    24A     -1.188404
      25A     -1.100809    26A     -1.093557    27A     -0.898436
      28A     -0.891258    29A     -0.677310    30A     -0.670201
      31A     -0.620356    32A     -0.613211    33A     -0.589690
      34A     -0.582553    35A     -0.478478    36A     -0.474524
      37A     -0.470848    38A     -0.467323    39A     -0.452718
      40A     -0.449462    41A     -0.445293    42A     -0.442056

  @DF-RHF Final Energy: -1916.17721396275397

   => Energetics <=

    Nuclear Repulsion Energy =            430.5720522919725681
    One-Electron Energy =               -3504.0956706734646104
    Two-Electron Energy =                1157.3464044187383024
    Total Energy =                      -1916.1772139627539673

  Dipole Moment: [D]
     X:     0.2358      Y:    -3.5793      Z:    -0.0910     Total:     3.5882

  Basis Set: (AUG-CC-PVQZ AUX)
    Blend: AUG-CC-PVQZ-RI
	 Reference Energy          =   -1916.1772139627539673 [Eh]
	 Singles Energy            =      -0.0000000000000000 [Eh]
	 Same-Spin Energy          =      -0.2837021658163343 [Eh]
	 Opposite-Spin Energy      =      -0.9350497947795593 [Eh]
	 Correlation Energy        =      -1.2187519605958936 [Eh]
	 Total Energy              =   -1917.3959659233498769 [Eh]

	 ================> DF-SCS-MP2 Energies <==================
	-----------------------------------------------------------
	 SCS Same-Spin Scale       =       0.3333333333333333 [-]
	 SCS Opposite-Spin Scale   =       1.2000000000000000 [-]
	 SCS Same-Spin Energy      =      -0.0945673886054448 [Eh]
	 SCS Opposite-Spin Energy  =      -1.1220597537354711 [Eh]
	 SCS Correlation Energy    =      -1.2166271423409158 [Eh]
	 SCS Total Energy          =   -1917.3938411050949071 [Eh]
	-----------------------------------------------------------

*** Psi4 exiting successfully. Buy a developer a beer!
