                               Psi4 1.3.2 release

  ==> Input File <==

--------------------------------------------------------------------------
molecule {
0 1
 Cl                 -0.8869533     0.6775213    -0.2883658
 Cl                  1.9056014    -0.2292421     0.0374276
  C                  0.1983835    -0.6935655    -0.0102364
  H                 -0.0561714    -1.1445283     0.9490648
  H                  0.0635140    -1.4078627    -0.8227287
--
0 1
  O                 -5.5995122    -0.9054318     0.4386205
  H                 -5.5716739    -1.8227279     0.7091050
  H                 -4.7013843    -0.6009601     0.3017941
}
memory 15GB
set_num_threads(4)
psi4_io.set_default_path("/scratch/bdw2292/Psi4-CH2Cl2")
set maxiter 500
set freeze_core True
set PROPERTIES_ORIGIN ["COM"]
e_dim= energy('mp2/aug-cc-pV[TQ]Z',bsse_type='cp')

psi4.print_out('CP Energy = %10.6f' % (e_dim))
clean()
--------------------------------------------------------------------------

    Molecular point group: c1
  Charge       = 0
  Multiplicity = 1
  Basis Set: AUG-CC-PVTZ
    Blend: AUG-CC-PVTZ
  Basis Set: (AUG-CC-PVTZ AUX)
    Blend: AUG-CC-PVTZ-JKFIT
  @DF-RHF Final Energy:   -76.06042415383951
    Total Energy =                        -76.0604241538395058
  Basis Set: (AUG-CC-PVTZ AUX)
    Blend: AUG-CC-PVTZ-RI
	 Reference Energy          =     -76.0604241538395058 [Eh]
	 Singles Energy            =      -0.0000000000000000 [Eh]
	 Same-Spin Energy          =      -0.0650916010753206 [Eh]
	 Opposite-Spin Energy      =      -0.2029660300292594 [Eh]
	 Correlation Energy        =      -0.2680576311045800 [Eh]
	 Total Energy              =     -76.3284817849440884 [Eh]
	 SCS Total Energy          =     -76.3256805902330626 [Eh]
    Molecular point group: c1
  Basis Set: AUG-CC-PVQZ
    Blend: AUG-CC-PVQZ
  Basis Set: (AUG-CC-PVQZ AUX)
    Blend: AUG-CC-PVQZ-JKFIT
  @DF-RHF Final Energy:   -76.06581169131464
    Total Energy =                        -76.0658116913146358
  Basis Set: (AUG-CC-PVQZ AUX)
  @DF-RHF Final Energy:   -76.06043271106498
    Total Energy =                        -76.0604327110649763
  @DF-RHF Final Energy:   -76.06581390842808
    Total Energy =                        -76.0658139084280833
  @DF-RHF Final Energy:  -958.07887831776134
    Total Energy =                       -958.0788783177613368
  @DF-RHF Final Energy:  -958.08857599495161
    Total Energy =                       -958.0885759949516114
  @DF-RHF Final Energy:  -958.07887011617709
    Total Energy =                       -958.0788701161770859
  @DF-RHF Final Energy:  -958.08857278692562
    Total Energy =                       -958.0885727869256243
  Multiplicity = 1
  @DF-RHF Final Energy: -1034.13936607424762
    Total Energy =                      -1034.1393660742478460
	 Singles Energy            =      -0.0000000000000000 [Eh]
	 Same-Spin Energy          =      -0.2024659549247883 [Eh]
	 Opposite-Spin Energy      =      -0.6318208985504407 [Eh]
	 Correlation Energy        =      -0.8342868534752290 [Eh]
	 Total Energy              =   -1034.9736529277229238 [Eh]
	 SCS Total Energy          =   -1034.9650398041496828 [Eh]
    Molecular point group: c1

    Geometry (in Angstrom), charge = 0, multiplicity = 1:

       Center              X                  Y                   Z               Mass
    ------------   -----------------  -----------------  -----------------  -----------------
         CL          -0.279795323986     0.796625175124    -0.281147303523    34.968852682000
         CL           2.512759376014    -0.110138224876     0.044646096477    34.968852682000
         C            0.805541476014    -0.574461624876    -0.003017903523    12.000000000000
         H            0.550986576014    -1.025424424876     0.956283296477     1.007825032230
         H            0.670671976014    -1.288758824876    -0.815510203523     1.007825032230
         O           -4.992354223986    -0.786327924876     0.445838996477    15.994914619570
         H           -4.964515923986    -1.703624024876     0.716323496477     1.007825032230
         H           -4.094226323986    -0.481856224876     0.309012596477     1.007825032230

  Charge       = 0
  Multiplicity = 1
  Basis Set: AUG-CC-PVQZ
    Blend: AUG-CC-PVQZ
  Basis Set: (AUG-CC-PVQZ AUX)
    Blend: AUG-CC-PVQZ-JKFIT

    Orbital Energies [Eh]
    ---------------------

    Doubly Occupied:

       1A   -104.854971     2A   -104.852820     3A    -20.563081
       4A    -11.370979     5A    -10.580505     6A    -10.578349
       7A     -8.047572     8A     -8.045780     9A     -8.045683
      10A     -8.045419    11A     -8.043605    12A     -8.043512
      13A     -1.350059    14A     -1.197137    15A     -1.102451
      16A     -0.900198    17A     -0.725341    18A     -0.679178
      19A     -0.622041    20A     -0.591278    21A     -0.577243
      22A     -0.509383    23A     -0.479852    24A     -0.476222
      25A     -0.454681    26A     -0.450954

  @DF-RHF Final Energy: -1034.15444237723159

   => Energetics <=

    Nuclear Repulsion Energy =            181.0638838774207500
    One-Electron Energy =               -1788.0600563576963395
    Two-Electron Energy =                 572.8417301030441422
    Total Energy =                      -1034.1544423772315895

  Dipole Moment: [D]
     X:     1.1285      Y:    -2.7110      Z:     0.4255     Total:     2.9672

  Basis Set: (AUG-CC-PVQZ AUX)
    Blend: AUG-CC-PVQZ-RI
	 Reference Energy          =   -1034.1544423772315895 [Eh]
	 Singles Energy            =      -0.0000000000000000 [Eh]
	 Same-Spin Energy          =      -0.2088960896881714 [Eh]
	 Opposite-Spin Energy      =      -0.6859334799389476 [Eh]
	 Correlation Energy        =      -0.8948295696271190 [Eh]
	 Total Energy              =   -1035.0492719468586529 [Eh]

	 ================> DF-SCS-MP2 Energies <==================
	-----------------------------------------------------------
	 SCS Same-Spin Scale       =       0.3333333333333333 [-]
	 SCS Opposite-Spin Scale   =       1.2000000000000000 [-]
	 SCS Same-Spin Energy      =      -0.0696320298960571 [Eh]
	 SCS Opposite-Spin Energy  =      -0.8231201759267371 [Eh]
	 SCS Correlation Energy    =      -0.8927522058227942 [Eh]
	 SCS Total Energy          =   -1035.0471945830543063 [Eh]
	-----------------------------------------------------------

*** Psi4 exiting successfully. Buy a developer a beer!
