                               Psi4 1.3.2 release

  ==> Input File <==

--------------------------------------------------------------------------
molecule {
0 1
 Cl                 -1.6165076    -0.1445430    -0.0459072
 Cl                  1.2931214     0.2390112    -0.0222988
  C                 -0.0333139    -0.9299819     0.0416379
  H                  0.0307675    -1.4731636     0.9845730
  H                  0.0628634    -1.6089770    -0.8056818
--
0 1
  O                 -0.7778882     2.9647338    -0.0805649
  H                 -0.8653614     2.0379208     0.1455828
  H                 -0.2263969     3.0257076    -0.8601081
}
memory 15GB
set_num_threads(4)
psi4_io.set_default_path("/scratch/bdw2292/Psi4-CH2Cl2")
set maxiter 500
set freeze_core True
set PROPERTIES_ORIGIN ["COM"]
e_dim= energy('mp2/aug-cc-pV[TQ]Z',bsse_type='cp')

psi4.print_out('CP Energy = %10.6f' % (e_dim))
clean()
--------------------------------------------------------------------------

    Molecular point group: c1
  Charge       = 0
  Multiplicity = 1
  Basis Set: AUG-CC-PVTZ
    Blend: AUG-CC-PVTZ
  Basis Set: (AUG-CC-PVTZ AUX)
    Blend: AUG-CC-PVTZ-JKFIT
  @DF-RHF Final Energy:   -76.06051173808248
    Total Energy =                        -76.0605117380824822
  Basis Set: (AUG-CC-PVTZ AUX)
    Blend: AUG-CC-PVTZ-RI
	 Reference Energy          =     -76.0605117380824822 [Eh]
	 Singles Energy            =      -0.0000000000000000 [Eh]
	 Same-Spin Energy          =      -0.0650989659594571 [Eh]
	 Opposite-Spin Energy      =      -0.2029943201627290 [Eh]
	 Correlation Energy        =      -0.2680932861221861 [Eh]
	 Total Energy              =     -76.3286050242046628 [Eh]
	 SCS Total Energy          =     -76.3258045775975802 [Eh]
    Molecular point group: c1
  Basis Set: AUG-CC-PVQZ
    Blend: AUG-CC-PVQZ
  Basis Set: (AUG-CC-PVQZ AUX)
    Blend: AUG-CC-PVQZ-JKFIT
  @DF-RHF Final Energy:   -76.06590011364322
    Total Energy =                        -76.0659001136432380
  Basis Set: (AUG-CC-PVQZ AUX)
  @DF-RHF Final Energy:   -76.06056965596109
    Total Energy =                        -76.0605696559611033
  @DF-RHF Final Energy:   -76.06592224073383
    Total Energy =                        -76.0659222407338120
  @DF-RHF Final Energy:  -958.07897901172089
    Total Energy =                       -958.0789790117210032
  @DF-RHF Final Energy:  -958.08861630797992
    Total Energy =                       -958.0886163079799189
  @DF-RHF Final Energy:  -958.07888784199884
    Total Energy =                       -958.0788878419988350
  @DF-RHF Final Energy:  -958.08859704406780
    Total Energy =                       -958.0885970440676829
  Multiplicity = 1
  @DF-RHF Final Energy: -1034.13587766453702
    Total Energy =                      -1034.1358776645370199
	 Singles Energy            =      -0.0000000000000000 [Eh]
	 Same-Spin Energy          =      -0.2049875632471785 [Eh]
	 Opposite-Spin Energy      =      -0.6348554956659054 [Eh]
	 Correlation Energy        =      -0.8398430589130839 [Eh]
	 Total Energy              =   -1034.9757207234501948 [Eh]
	 SCS Total Energy          =   -1034.9660334470852376 [Eh]
    Molecular point group: c1

    Geometry (in Angstrom), charge = 0, multiplicity = 1:

       Center              X                  Y                   Z               Mass
    ------------   -----------------  -----------------  -----------------  -----------------
         CL          -1.369788914792    -0.552151090487    -0.009483679672    34.968852682000
         CL           1.539840085208    -0.168596890487     0.014124720328    34.968852682000
         C            0.213404785208    -1.337589990487     0.078061420328    12.000000000000
         H            0.277486185208    -1.880771690487     1.020996520328     1.007825032230
         H            0.309582085208    -2.016585090487    -0.769258279672     1.007825032230
         O           -0.531169514792     2.557125709513    -0.044141379672    15.994914619570
         H           -0.618642714792     1.630312709513     0.182006320328     1.007825032230
         H            0.020321785208     2.618099509513    -0.823684579672     1.007825032230

  Charge       = 0
  Multiplicity = 1
  Basis Set: AUG-CC-PVQZ
    Blend: AUG-CC-PVQZ
  Basis Set: (AUG-CC-PVQZ AUX)
    Blend: AUG-CC-PVQZ-JKFIT

    Orbital Energies [Eh]
    ---------------------

    Doubly Occupied:

       1A   -104.863480     2A   -104.859814     3A    -20.538847
       4A    -11.377491     5A    -10.589501     6A    -10.585553
       7A     -8.056521     8A     -8.054788     9A     -8.054634
      10A     -8.052609    11A     -8.050806    12A     -8.050694
      13A     -1.329389    14A     -1.207126    15A     -1.111198
      16A     -0.908321    17A     -0.706144    18A     -0.686136
      19A     -0.631756    20A     -0.599269    21A     -0.562900
      22A     -0.489992    23A     -0.488114    24A     -0.481781
      25A     -0.461878    26A     -0.459054

  @DF-RHF Final Energy: -1034.15089652001461

   => Energetics <=

    Nuclear Repulsion Energy =            209.9579152898103871
    One-Electron Energy =               -1845.7020266157071546
    Two-Electron Energy =                 601.5932148058820985
    Total Energy =                      -1034.1508965200146122

  Dipole Moment: [D]
     X:     1.0587      Y:    -3.7435      Z:    -0.7646     Total:     3.9647

  Basis Set: (AUG-CC-PVQZ AUX)
    Blend: AUG-CC-PVQZ-RI
	 Reference Energy          =   -1034.1508965200146122 [Eh]
	 Singles Energy            =      -0.0000000000000000 [Eh]
	 Same-Spin Energy          =      -0.2114464584617453 [Eh]
	 Opposite-Spin Energy      =      -0.6888129199700124 [Eh]
	 Correlation Energy        =      -0.9002593784317576 [Eh]
	 Total Energy              =   -1035.0511558984462681 [Eh]

	 ================> DF-SCS-MP2 Energies <==================
	-----------------------------------------------------------
	 SCS Same-Spin Scale       =       0.3333333333333333 [-]
	 SCS Opposite-Spin Scale   =       1.2000000000000000 [-]
	 SCS Same-Spin Energy      =      -0.0704821528205817 [Eh]
	 SCS Opposite-Spin Energy  =      -0.8265755039640148 [Eh]
	 SCS Correlation Energy    =      -0.8970576567845966 [Eh]
	 SCS Total Energy          =   -1035.0479541767992941 [Eh]
	-----------------------------------------------------------

*** Psi4 exiting successfully. Buy a developer a beer!
