                               Psi4 1.3.2 release

  ==> Input File <==

--------------------------------------------------------------------------
molecule {
0 1
 Cl                 -1.5388435    -0.1931364     0.6760242
 Cl                  1.2369893     0.3960644    -0.1472336
  C                  0.0155402    -0.8508783     0.1416569
  H                  0.3883584    -1.5173747     0.9193488
  H                 -0.1425503    -1.3959932    -0.7887828
--
0 1
 Cl                 -3.7201172     3.0570396    -2.5756993
 Cl                 -0.7906902     2.7221798    -2.4179136
  C                 -2.3668845     1.9204513    -2.4800565
  H                 -2.4825544     1.3272638    -1.5734392
  H                 -2.3918478     1.2843436    -3.3647048
}
memory 15GB
set_num_threads(4)
psi4_io.set_default_path("/scratch/bdw2292/Psi4-CH2Cl2")
set maxiter 500
set freeze_core True
set PROPERTIES_ORIGIN ["COM"]
e_dim= energy('mp2/aug-cc-pV[TQ]Z',bsse_type='cp')

psi4.print_out('CP Energy = %10.6f' % (e_dim))
clean()
--------------------------------------------------------------------------

    Molecular point group: c1
  Charge       = 0
  Multiplicity = 1
  Basis Set: AUG-CC-PVTZ
    Blend: AUG-CC-PVTZ
  Basis Set: (AUG-CC-PVTZ AUX)
    Blend: AUG-CC-PVTZ-JKFIT
  @DF-RHF Final Energy:  -958.07889657874489
    Total Energy =                       -958.0788965787448888
  Basis Set: (AUG-CC-PVTZ AUX)
    Blend: AUG-CC-PVTZ-RI
	 Reference Energy          =    -958.0788965787448888 [Eh]
	 Singles Energy            =      -0.0000000000000000 [Eh]
	 Same-Spin Energy          =      -0.1372550636564462 [Eh]
	 Opposite-Spin Energy      =      -0.4286502501133905 [Eh]
	 Correlation Energy        =      -0.5659053137698367 [Eh]
	 Total Energy              =    -958.6448018925146926 [Eh]
	 SCS Total Energy          =    -958.6390285667664557 [Eh]
    Molecular point group: c1
  Basis Set: AUG-CC-PVQZ
    Blend: AUG-CC-PVQZ
  Basis Set: (AUG-CC-PVQZ AUX)
    Blend: AUG-CC-PVQZ-JKFIT
  @DF-RHF Final Energy:  -958.08860315412562
    Total Energy =                       -958.0886031541256216
  Basis Set: (AUG-CC-PVQZ AUX)
  @DF-RHF Final Energy:  -958.07895115486713
    Total Energy =                       -958.0789511548671271
  @DF-RHF Final Energy:  -958.08861965503047
    Total Energy =                       -958.0886196550304703
  @DF-RHF Final Energy:  -958.07895758248424
    Total Energy =                       -958.0789575824842359
  @DF-RHF Final Energy:  -958.08859857123309
    Total Energy =                       -958.0885985712330921
  @DF-RHF Final Energy:  -958.07887433655571
    Total Energy =                       -958.0788743365558275
  @DF-RHF Final Energy:  -958.08857991736147
    Total Energy =                       -958.0885799173615851
  Multiplicity = 1
  @DF-RHF Final Energy: -1916.15609557097150
    Total Energy =                      -1916.1560955709715017
	 Singles Energy            =      -0.0000000000000000 [Eh]
	 Same-Spin Energy          =      -0.2766792985789758 [Eh]
	 Opposite-Spin Energy      =      -0.8600211835239608 [Eh]
	 Correlation Energy        =      -1.1367004821029367 [Eh]
	 Total Energy              =   -1917.2927960530744258 [Eh]
	 SCS Total Energy          =   -1917.2803474240599826 [Eh]
    Molecular point group: c1

    Geometry (in Angstrom), charge = 0, multiplicity = 1:

       Center              X                  Y                   Z               Mass
    ------------   -----------------  -----------------  -----------------  -----------------
         CL          -0.340712716126    -1.513629096423     1.801861904449    34.968852682000
         CL           2.435120083874    -0.924428296423     0.978604104449    34.968852682000
         C            1.213670983874    -2.171370996423     1.267494604449    12.000000000000
         H            1.586489183874    -2.837867396423     2.045186504449     1.007825032230
         H            1.055580483874    -2.716485896423     0.337054904449     1.007825032230
         CL          -2.521986416126     1.736546903577    -1.449861595551    34.968852682000
         CL           0.407440583874     1.401687103577    -1.292075895551    34.968852682000
         C           -1.168753716126     0.599958603577    -1.354218795551    12.000000000000
         H           -1.284423616126     0.006771103577    -0.447601495551     1.007825032230
         H           -1.193717016126    -0.036149096423    -2.238867095551     1.007825032230

  Charge       = 0
  Multiplicity = 1
  Basis Set: AUG-CC-PVQZ
    Blend: AUG-CC-PVQZ
  Basis Set: (AUG-CC-PVQZ AUX)
    Blend: AUG-CC-PVQZ-JKFIT

    Orbital Energies [Eh]
    ---------------------

    Doubly Occupied:

       1A   -104.857173     2A   -104.850821     3A   -104.842736
       4A   -104.840866     5A    -11.371249     6A    -11.357702
       7A    -10.582874     8A    -10.576408     9A    -10.568323
      10A    -10.566518    11A     -8.049938    12A     -8.048159
      13A     -8.048083    14A     -8.043474    15A     -8.041641
      16A     -8.041546    17A     -8.035396    18A     -8.033605
      19A     -8.033585    20A     -8.033512    21A     -8.031784
      22A     -8.031688    23A     -1.198016    24A     -1.185432
      25A     -1.103203    26A     -1.090781    27A     -0.900829
      28A     -0.888282    29A     -0.680288    30A     -0.667021
      31A     -0.622710    32A     -0.610512    33A     -0.592063
      34A     -0.579675    35A     -0.483379    36A     -0.478293
      37A     -0.467509    38A     -0.463825    39A     -0.454976
      40A     -0.452974    41A     -0.439738    42A     -0.438026

  @DF-RHF Final Energy: -1916.17541168907496

   => Energetics <=

    Nuclear Repulsion Energy =            468.6373852523785786
    One-Electron Energy =               -3580.2563633085005677
    Two-Electron Energy =                1195.4435663670471968
    Total Energy =                      -1916.1754116890749629

  Dipole Moment: [D]
     X:     0.3660      Y:    -3.6170      Z:     0.0135     Total:     3.6354

  Basis Set: (AUG-CC-PVQZ AUX)
    Blend: AUG-CC-PVQZ-RI
	 Reference Energy          =   -1916.1754116890749629 [Eh]
	 Singles Energy            =      -0.0000000000000000 [Eh]
	 Same-Spin Energy          =      -0.2854182476664518 [Eh]
	 Opposite-Spin Energy      =      -0.9370128581654518 [Eh]
	 Correlation Energy        =      -1.2224311058319035 [Eh]
	 Total Energy              =   -1917.3978427949068646 [Eh]

	 ================> DF-SCS-MP2 Energies <==================
	-----------------------------------------------------------
	 SCS Same-Spin Scale       =       0.3333333333333333 [-]
	 SCS Opposite-Spin Scale   =       1.2000000000000000 [-]
	 SCS Same-Spin Energy      =      -0.0951394158888173 [Eh]
	 SCS Opposite-Spin Energy  =      -1.1244154297985420 [Eh]
	 SCS Correlation Energy    =      -1.2195548456873593 [Eh]
	 SCS Total Energy          =   -1917.3949665347622613 [Eh]
	-----------------------------------------------------------

*** Psi4 exiting successfully. Buy a developer a beer!
