                               Psi4 1.3.2 release

  ==> Input File <==

--------------------------------------------------------------------------
molecule {
0 1
 Cl                 -1.6165076    -0.1445430    -0.0459072
 Cl                  1.2931214     0.2390112    -0.0222988
  C                 -0.0333139    -0.9299819     0.0416379
  H                  0.0307675    -1.4731636     0.9845730
  H                  0.0628634    -1.6089770    -0.8056818
--
0 1
  O                 -0.2918523     4.3769163     0.0433404
  H                 -0.3793255     3.4501033     0.2694881
  H                  0.2596389     4.4378901    -0.7362028
}
memory 15GB
set_num_threads(4)
psi4_io.set_default_path("/scratch/bdw2292/Psi4-CH2Cl2")
set maxiter 500
set freeze_core True
set PROPERTIES_ORIGIN ["COM"]
e_dim= energy('mp2/aug-cc-pV[TQ]Z',bsse_type='cp')

psi4.print_out('CP Energy = %10.6f' % (e_dim))
clean()
--------------------------------------------------------------------------

    Molecular point group: c1
  Charge       = 0
  Multiplicity = 1
  Basis Set: AUG-CC-PVTZ
    Blend: AUG-CC-PVTZ
  Basis Set: (AUG-CC-PVTZ AUX)
    Blend: AUG-CC-PVTZ-JKFIT
  @DF-RHF Final Energy:   -76.06051174000885
    Total Energy =                        -76.0605117400088488
  Basis Set: (AUG-CC-PVTZ AUX)
    Blend: AUG-CC-PVTZ-RI
	 Reference Energy          =     -76.0605117400088488 [Eh]
	 Singles Energy            =      -0.0000000000000000 [Eh]
	 Same-Spin Energy          =      -0.0650989654291261 [Eh]
	 Opposite-Spin Energy      =      -0.2029943183788389 [Eh]
	 Correlation Energy        =      -0.2680932838079650 [Eh]
	 Total Energy              =     -76.3286050238168201 [Eh]
	 SCS Total Energy          =     -76.3258045772064975 [Eh]
    Molecular point group: c1
  Basis Set: AUG-CC-PVQZ
    Blend: AUG-CC-PVQZ
  Basis Set: (AUG-CC-PVQZ AUX)
    Blend: AUG-CC-PVQZ-JKFIT
  @DF-RHF Final Energy:   -76.06590011572180
    Total Energy =                        -76.0659001157218171
  Basis Set: (AUG-CC-PVQZ AUX)
  @DF-RHF Final Energy:   -76.06052259362137
    Total Energy =                        -76.0605225936213856
  @DF-RHF Final Energy:   -76.06590616126607
    Total Energy =                        -76.0659061612660850
  @DF-RHF Final Energy:  -958.07891498963204
    Total Energy =                       -958.0789149896320396
  @DF-RHF Final Energy:  -958.08860331580797
    Total Energy =                       -958.0886033158079726
  @DF-RHF Final Energy:  -958.07888784193949
    Total Energy =                       -958.0788878419394905
  @DF-RHF Final Energy:  -958.08859704426970
    Total Energy =                       -958.0885970442698181
  Multiplicity = 1
  @DF-RHF Final Energy: -1034.14062015223840
    Total Energy =                      -1034.1406201522383981
	 Singles Energy            =      -0.0000000000000000 [Eh]
	 Same-Spin Energy          =      -0.2026993350642039 [Eh]
	 Opposite-Spin Energy      =      -0.6320189251993124 [Eh]
	 Correlation Energy        =      -0.8347182602635163 [Eh]
	 Total Energy              =   -1034.9753384125019693 [Eh]
	 SCS Total Energy          =   -1034.9666093074990840 [Eh]
    Molecular point group: c1

    Geometry (in Angstrom), charge = 0, multiplicity = 1:

       Center              X                  Y                   Z               Mass
    ------------   -----------------  -----------------  -----------------  -----------------
         CL          -1.455640664168    -0.801594268366    -0.031369896070    34.968852682000
         CL           1.453988335832    -0.418040068366    -0.007761496070    34.968852682000
         C            0.127553035832    -1.587033168366     0.056175203930    12.000000000000
         H            0.191634435832    -2.130214868366     0.999110303930     1.007825032230
         H            0.223730335832    -2.266028268366    -0.791144496070     1.007825032230
         O           -0.130985364168     3.719865031634     0.057877703930    15.994914619570
         H           -0.218458564168     2.793052031634     0.284025403930     1.007825032230
         H            0.420505835832     3.780838831634    -0.721665496070     1.007825032230

  Charge       = 0
  Multiplicity = 1
  Basis Set: AUG-CC-PVQZ
    Blend: AUG-CC-PVQZ
  Basis Set: (AUG-CC-PVQZ AUX)
    Blend: AUG-CC-PVQZ-JKFIT

    Orbital Energies [Eh]
    ---------------------

    Doubly Occupied:

       1A   -104.856913     2A   -104.855768     3A    -20.553957
       4A    -11.372738     5A    -10.582544     6A    -10.581355
       7A     -8.049614     8A     -8.048422     9A     -8.047821
      10A     -8.047726    11A     -8.046616    12A     -8.046521
      13A     -1.341235    14A     -1.200553    15A     -1.104548
      16A     -0.902521    17A     -0.714932    18A     -0.681263
      19A     -0.625427    20A     -0.593375    21A     -0.569715
      22A     -0.500485    23A     -0.482033    24A     -0.480657
      25A     -0.456042    26A     -0.454051

  @DF-RHF Final Energy: -1034.15568605452268

   => Energetics <=

    Nuclear Repulsion Energy =            191.7926652447772824
    One-Electron Energy =               -1809.5030277866121651
    Two-Electron Energy =                 583.5546764873122356
    Total Energy =                      -1034.1556860545226755

  Dipole Moment: [D]
     X:     1.0121      Y:    -3.5027      Z:    -0.7919     Total:     3.7310

  Basis Set: (AUG-CC-PVQZ AUX)
    Blend: AUG-CC-PVQZ-RI
	 Reference Energy          =   -1034.1556860545226755 [Eh]
	 Singles Energy            =      -0.0000000000000000 [Eh]
	 Same-Spin Energy          =      -0.2091336009172144 [Eh]
	 Opposite-Spin Energy      =      -0.6861136106819049 [Eh]
	 Correlation Energy        =      -0.8952472115991194 [Eh]
	 Total Energy              =   -1035.0509332661217741 [Eh]

	 ================> DF-SCS-MP2 Energies <==================
	-----------------------------------------------------------
	 SCS Same-Spin Scale       =       0.3333333333333333 [-]
	 SCS Opposite-Spin Scale   =       1.2000000000000000 [-]
	 SCS Same-Spin Energy      =      -0.0697112003057381 [Eh]
	 SCS Opposite-Spin Energy  =      -0.8233363328182859 [Eh]
	 SCS Correlation Energy    =      -0.8930475331240241 [Eh]
	 SCS Total Energy          =   -1035.0487335876466659 [Eh]
	-----------------------------------------------------------

*** Psi4 exiting successfully. Buy a developer a beer!
