                               Psi4 1.3.2 release

  ==> Input File <==

--------------------------------------------------------------------------
molecule {
0 1
 Cl                 -0.8869533     0.6775213    -0.2883658
 Cl                  1.9056014    -0.2292421     0.0374276
  C                  0.1983835    -0.6935655    -0.0102364
  H                 -0.0561714    -1.1445283     0.9490648
  H                  0.0635140    -1.4078627    -0.8227287
--
0 1
  O                 -4.2530668    -0.4531595     0.2309102
  H                 -4.2252285    -1.3704556     0.5013946
  H                 -3.3549389    -0.1486878     0.0940837
}
memory 15GB
set_num_threads(4)
psi4_io.set_default_path("/scratch/bdw2292/Psi4-CH2Cl2")
set maxiter 500
set freeze_core True
set PROPERTIES_ORIGIN ["COM"]
e_dim= energy('mp2/aug-cc-pV[TQ]Z',bsse_type='cp')

psi4.print_out('CP Energy = %10.6f' % (e_dim))
clean()
--------------------------------------------------------------------------

    Molecular point group: c1
  Charge       = 0
  Multiplicity = 1
  Basis Set: AUG-CC-PVTZ
    Blend: AUG-CC-PVTZ
  Basis Set: (AUG-CC-PVTZ AUX)
    Blend: AUG-CC-PVTZ-JKFIT
  @DF-RHF Final Energy:   -76.06042415413681
    Total Energy =                        -76.0604241541368111
  Basis Set: (AUG-CC-PVTZ AUX)
    Blend: AUG-CC-PVTZ-RI
	 Reference Energy          =     -76.0604241541368111 [Eh]
	 Singles Energy            =      -0.0000000000000000 [Eh]
	 Same-Spin Energy          =      -0.0650916009354067 [Eh]
	 Opposite-Spin Energy      =      -0.2029660295522652 [Eh]
	 Correlation Energy        =      -0.2680576304876718 [Eh]
	 Total Energy              =     -76.3284817846244863 [Eh]
	 SCS Total Energy          =     -76.3256805899113289 [Eh]
    Molecular point group: c1
  Basis Set: AUG-CC-PVQZ
    Blend: AUG-CC-PVQZ
  Basis Set: (AUG-CC-PVQZ AUX)
    Blend: AUG-CC-PVQZ-JKFIT
  @DF-RHF Final Energy:   -76.06581169165696
    Total Energy =                        -76.0658116916569611
  Basis Set: (AUG-CC-PVQZ AUX)
  @DF-RHF Final Energy:   -76.06045287759794
    Total Energy =                        -76.0604528775979247
  @DF-RHF Final Energy:   -76.06582260893562
    Total Energy =                        -76.0658226089356191
  @DF-RHF Final Energy:  -958.07892726305897
    Total Energy =                       -958.0789272630588584
  @DF-RHF Final Energy:  -958.08858633884677
    Total Energy =                       -958.0885863388467669
  @DF-RHF Final Energy:  -958.07887011602622
    Total Energy =                       -958.0788701160262235
  @DF-RHF Final Energy:  -958.08857278668643
    Total Energy =                       -958.0885727866864272
  Multiplicity = 1
  @DF-RHF Final Energy: -1034.13935742390800
    Total Energy =                      -1034.1393574239079953
	 Singles Energy            =      -0.0000000000000000 [Eh]
	 Same-Spin Energy          =      -0.2033612915666887 [Eh]
	 Opposite-Spin Energy      =      -0.6329979014262741 [Eh]
	 Correlation Energy        =      -0.8363591929929628 [Eh]
	 Total Energy              =   -1034.9757166169008542 [Eh]
	 SCS Total Energy          =   -1034.9667420028083598 [Eh]
    Molecular point group: c1

    Geometry (in Angstrom), charge = 0, multiplicity = 1:

       Center              X                  Y                   Z               Mass
    ------------   -----------------  -----------------  -----------------  -----------------
         CL          -0.517626921118     0.716737313761    -0.244458051177    34.968852682000
         CL           2.274927778882    -0.190026086239     0.081335348823    34.968852682000
         C            0.567709878882    -0.654349486239     0.033671348823    12.000000000000
         H            0.313154978882    -1.105312286239     0.992972548823     1.007825032230
         H            0.432840378882    -1.368646686239    -0.778820951177     1.007825032230
         O           -3.883740421118    -0.413943486239     0.274817948823    15.994914619570
         H           -3.855902121118    -1.331239586239     0.545302348823     1.007825032230
         H           -2.985612521118    -0.109471786239     0.137991448823     1.007825032230

  Charge       = 0
  Multiplicity = 1
  Basis Set: AUG-CC-PVQZ
    Blend: AUG-CC-PVQZ
  Basis Set: (AUG-CC-PVQZ AUX)
    Blend: AUG-CC-PVQZ-JKFIT

    Orbital Energies [Eh]
    ---------------------

    Doubly Occupied:

       1A   -104.862260     2A   -104.856937     3A    -20.556509
       4A    -11.375907     5A    -10.587944     6A    -10.582415
       7A     -8.055001     8A     -8.053247     9A     -8.053125
      10A     -8.049486    11A     -8.047659    12A     -8.047564
      13A     -1.344497    14A     -1.202857    15A     -1.108445
      16A     -0.905537    17A     -0.720820    18A     -0.684082
      19A     -0.627975    20A     -0.596748    21A     -0.572451
      22A     -0.503796    23A     -0.485483    24A     -0.482186
      25A     -0.460704    26A     -0.456067

  @DF-RHF Final Energy: -1034.15440902572709

   => Energetics <=

    Nuclear Repulsion Energy =            193.6260338239719090
    One-Electron Energy =               -1813.0014789819824728
    Two-Electron Energy =                 585.2210361322834160
    Total Energy =                      -1034.1544090257270909

  Dipole Moment: [D]
     X:     1.4088      Y:    -2.6516      Z:     0.3947     Total:     3.0285

  Basis Set: (AUG-CC-PVQZ AUX)
    Blend: AUG-CC-PVQZ-RI
	 Reference Energy          =   -1034.1544090257270909 [Eh]
	 Singles Energy            =      -0.0000000000000000 [Eh]
	 Same-Spin Energy          =      -0.2097835640202866 [Eh]
	 Opposite-Spin Energy      =      -0.6869644005274576 [Eh]
	 Correlation Energy        =      -0.8967479645477442 [Eh]
	 Total Energy              =   -1035.0511569902748761 [Eh]

	 ================> DF-SCS-MP2 Energies <==================
	-----------------------------------------------------------
	 SCS Same-Spin Scale       =       0.3333333333333333 [-]
	 SCS Opposite-Spin Scale   =       1.2000000000000000 [-]
	 SCS Same-Spin Energy      =      -0.0699278546734289 [Eh]
	 SCS Opposite-Spin Energy  =      -0.8243572806329490 [Eh]
	 SCS Correlation Energy    =      -0.8942851353063779 [Eh]
	 SCS Total Energy          =   -1035.0486941610333815 [Eh]
	-----------------------------------------------------------

*** Psi4 exiting successfully. Buy a developer a beer!
