                               Psi4 1.3.2 release

  ==> Input File <==

--------------------------------------------------------------------------
molecule {
0 1
 Cl                 -1.5388435    -0.1931364     0.6760242
 Cl                  1.2369893     0.3960644    -0.1472336
  C                  0.0155402    -0.8508783     0.1416569
  H                  0.3883584    -1.5173747     0.9193488
  H                 -0.1425503    -1.3959932    -0.7887828
--
0 1
 Cl                 -3.6257462     2.9049995    -2.3507530
 Cl                 -0.6963191     2.5701398    -2.1929673
  C                 -2.2725134     1.7684113    -2.2551102
  H                 -2.3881833     1.1752238    -1.3484929
  H                 -2.2974767     1.1323036    -3.1397585
}
memory 15GB
set_num_threads(4)
psi4_io.set_default_path("/scratch/bdw2292/Psi4-CH2Cl2")
set maxiter 500
set freeze_core True
set PROPERTIES_ORIGIN ["COM"]
e_dim= energy('mp2/aug-cc-pV[TQ]Z',bsse_type='cp')

psi4.print_out('CP Energy = %10.6f' % (e_dim))
clean()
--------------------------------------------------------------------------

    Molecular point group: c1
  Charge       = 0
  Multiplicity = 1
  Basis Set: AUG-CC-PVTZ
    Blend: AUG-CC-PVTZ
  Basis Set: (AUG-CC-PVTZ AUX)
    Blend: AUG-CC-PVTZ-JKFIT
  @DF-RHF Final Energy:  -958.07889657849853
    Total Energy =                       -958.0788965784984157
  Basis Set: (AUG-CC-PVTZ AUX)
    Blend: AUG-CC-PVTZ-RI
	 Reference Energy          =    -958.0788965784985294 [Eh]
	 Singles Energy            =      -0.0000000000000000 [Eh]
	 Same-Spin Energy          =      -0.1372550635016885 [Eh]
	 Opposite-Spin Energy      =      -0.4286502501716358 [Eh]
	 Correlation Energy        =      -0.5659053136733243 [Eh]
	 Total Energy              =    -958.6448018921718131 [Eh]
	 SCS Total Energy          =    -958.6390285665383999 [Eh]
    Molecular point group: c1
  Basis Set: AUG-CC-PVQZ
    Blend: AUG-CC-PVQZ
  Basis Set: (AUG-CC-PVQZ AUX)
    Blend: AUG-CC-PVQZ-JKFIT
  @DF-RHF Final Energy:  -958.08860315359141
    Total Energy =                       -958.0886031535914071
  Basis Set: (AUG-CC-PVQZ AUX)
  @DF-RHF Final Energy:  -958.07896702601988
    Total Energy =                       -958.0789670260198818
  @DF-RHF Final Energy:  -958.08862341310157
    Total Energy =                       -958.0886234131015726
  @DF-RHF Final Energy:  -958.07897796051611
    Total Energy =                       -958.0789779605161129
  @DF-RHF Final Energy:  -958.08860281244085
    Total Energy =                       -958.0886028124409677
  @DF-RHF Final Energy:  -958.07887433657902
    Total Energy =                       -958.0788743365790197
  @DF-RHF Final Energy:  -958.08857991701461
    Total Energy =                       -958.0885799170146129
  Multiplicity = 1
  @DF-RHF Final Energy: -1916.15298258435951
    Total Energy =                      -1916.1529825843595063
	 Singles Energy            =      -0.0000000000000000 [Eh]
	 Same-Spin Energy          =      -0.2778492640820623 [Eh]
	 Opposite-Spin Energy      =      -0.8614246160369937 [Eh]
	 Correlation Energy        =      -1.1392738801190561 [Eh]
	 Total Energy              =   -1917.2922564644786689 [Eh]
	 SCS Total Energy          =   -1917.2793085449645787 [Eh]
    Molecular point group: c1

    Geometry (in Angstrom), charge = 0, multiplicity = 1:

       Center              X                  Y                   Z               Mass
    ------------   -----------------  -----------------  -----------------  -----------------
         CL          -0.387898245300    -1.437609075597     1.689388754449    34.968852682000
         CL           2.387934554701    -0.848408275597     0.866130954449    34.968852682000
         C            1.166485454701    -2.095350975597     1.155021454449    12.000000000000
         H            1.539303654700    -2.761847375597     1.932713354449     1.007825032230
         H            1.008394954701    -2.640465875597     0.224581754449     1.007825032230
         CL          -2.474800945299     1.660526824403    -1.337388445551    34.968852682000
         CL           0.454626154701     1.325667124403    -1.179602745551    34.968852682000
         C           -1.121568145299     0.523938624403    -1.241745645551    12.000000000000
         H           -1.237238045300    -0.069248875597    -0.335128345551     1.007825032230
         H           -1.146531445299    -0.112169075597    -2.126393945551     1.007825032230

  Charge       = 0
  Multiplicity = 1
  Basis Set: AUG-CC-PVQZ
    Blend: AUG-CC-PVQZ
  Basis Set: (AUG-CC-PVQZ AUX)
    Blend: AUG-CC-PVQZ-JKFIT

    Orbital Energies [Eh]
    ---------------------

    Doubly Occupied:

       1A   -104.858437     2A   -104.850357     3A   -104.841390
       4A   -104.838982     5A    -11.372211     6A    -11.355110
       7A    -10.584320     8A    -10.576036     9A    -10.566990
      10A    -10.564753    11A     -8.051370    12A     -8.049601
      13A     -8.049534    14A     -8.043093    15A     -8.041257
      16A     -8.041161    17A     -8.034064    18A     -8.032279
      19A     -8.032185    20A     -8.031809    21A     -8.030018
      22A     -8.029919    23A     -1.199284    24A     -1.183928
      25A     -1.104352    26A     -1.089487    27A     -0.902030
      28A     -0.886921    29A     -0.682122    30A     -0.665775
      31A     -0.623795    32A     -0.609432    33A     -0.593103
      34A     -0.578241    35A     -0.486986    36A     -0.480202
      37A     -0.466185    38A     -0.461988    39A     -0.455771
      40A     -0.454531    41A     -0.436309    42A     -0.434573

  @DF-RHF Final Energy: -1916.17227150609779

   => Energetics <=

    Nuclear Repulsion Energy =            480.9624926994247289
    One-Electron Energy =               -3604.9297386990383529
    Two-Electron Energy =                1207.7949744935158378
    Total Energy =                      -1916.1722715060977862

  Dipole Moment: [D]
     X:     0.4208      Y:    -3.6462      Z:     0.0630     Total:     3.6710

  Basis Set: (AUG-CC-PVQZ AUX)
    Blend: AUG-CC-PVQZ-RI
	 Reference Energy          =   -1916.1722715060977862 [Eh]
	 Singles Energy            =      -0.0000000000000000 [Eh]
	 Same-Spin Energy          =      -0.2866126442851722 [Eh]
	 Opposite-Spin Energy      =      -0.9383943220127576 [Eh]
	 Correlation Energy        =      -1.2250069662979297 [Eh]
	 Total Energy              =   -1917.3972784723957830 [Eh]

	 ================> DF-SCS-MP2 Energies <==================
	-----------------------------------------------------------
	 SCS Same-Spin Scale       =       0.3333333333333333 [-]
	 SCS Opposite-Spin Scale   =       1.2000000000000000 [-]
	 SCS Same-Spin Energy      =      -0.0955375480950574 [Eh]
	 SCS Opposite-Spin Energy  =      -1.1260731864153091 [Eh]
	 SCS Correlation Energy    =      -1.2216107345103664 [Eh]
	 SCS Total Energy          =   -1917.3938822406082636 [Eh]
	-----------------------------------------------------------

*** Psi4 exiting successfully. Buy a developer a beer!
