                               Psi4 1.3.2 release

  ==> Input File <==

--------------------------------------------------------------------------
molecule {
0 1
 Cl                 -0.8869533     0.6775213    -0.2883658
 Cl                  1.9056014    -0.2292421     0.0374276
  C                  0.1983835    -0.6935655    -0.0102364
  H                 -0.0561714    -1.1445283     0.9490648
  H                  0.0635140    -1.4078627    -0.8227287
--
0 1
  O                 -3.9164555    -0.3400914     0.1789826
  H                 -3.8886172    -1.2573875     0.4494670
  H                 -3.0183276    -0.0356197     0.0421562
}
memory 15GB
set_num_threads(4)
psi4_io.set_default_path("/scratch/bdw2292/Psi4-CH2Cl2")
set maxiter 500
set freeze_core True
set PROPERTIES_ORIGIN ["COM"]
e_dim= energy('mp2/aug-cc-pV[TQ]Z',bsse_type='cp')

psi4.print_out('CP Energy = %10.6f' % (e_dim))
clean()
--------------------------------------------------------------------------

    Molecular point group: c1
  Charge       = 0
  Multiplicity = 1
  Basis Set: AUG-CC-PVTZ
    Blend: AUG-CC-PVTZ
  Basis Set: (AUG-CC-PVTZ AUX)
    Blend: AUG-CC-PVTZ-JKFIT
  @DF-RHF Final Energy:   -76.06042415487597
    Total Energy =                        -76.0604241548759745
  Basis Set: (AUG-CC-PVTZ AUX)
    Blend: AUG-CC-PVTZ-RI
	 Reference Energy          =     -76.0604241548759745 [Eh]
	 Singles Energy            =      -0.0000000000000000 [Eh]
	 Same-Spin Energy          =      -0.0650916008224366 [Eh]
	 Opposite-Spin Energy      =      -0.2029660291819076 [Eh]
	 Correlation Energy        =      -0.2680576300043442 [Eh]
	 Total Energy              =     -76.3284817848803243 [Eh]
	 SCS Total Energy          =     -76.3256805901684032 [Eh]
    Molecular point group: c1
  Basis Set: AUG-CC-PVQZ
    Blend: AUG-CC-PVQZ
  Basis Set: (AUG-CC-PVQZ AUX)
    Blend: AUG-CC-PVQZ-JKFIT
  @DF-RHF Final Energy:   -76.06581169242249
    Total Energy =                        -76.0658116924224856
  Basis Set: (AUG-CC-PVQZ AUX)
  @DF-RHF Final Energy:   -76.06046670676773
    Total Energy =                        -76.0604667067677269
  @DF-RHF Final Energy:   -76.06582745834353
    Total Energy =                        -76.0658274583435343
  @DF-RHF Final Energy:  -958.07894287442264
    Total Energy =                       -958.0789428744226370
  @DF-RHF Final Energy:  -958.08858992993248
    Total Energy =                       -958.0885899299324819
  @DF-RHF Final Energy:  -958.07887011632238
    Total Energy =                       -958.0788701163223777
  @DF-RHF Final Energy:  -958.08857278653397
    Total Energy =                       -958.0885727865338595
  Multiplicity = 1
  @DF-RHF Final Energy: -1034.13665647424568
    Total Energy =                      -1034.1366564742456831
	 Singles Energy            =      -0.0000000000000000 [Eh]
	 Same-Spin Energy          =      -0.2042442541540910 [Eh]
	 Opposite-Spin Energy      =      -0.6340212275062722 [Eh]
	 Correlation Energy        =      -0.8382654816603632 [Eh]
	 Total Energy              =   -1034.9749219559059839 [Eh]
	 SCS Total Energy          =   -1034.9655633653046607 [Eh]
    Molecular point group: c1

    Geometry (in Angstrom), charge = 0, multiplicity = 1:

       Center              X                  Y                   Z               Mass
    ------------   -----------------  -----------------  -----------------  -----------------
         CL          -0.577084811569     0.696765344004    -0.235285735157    34.968852682000
         CL           2.215469888431    -0.209998055996     0.090507664843    34.968852682000
         C            0.508251988431    -0.674321455996     0.042843664843    12.000000000000
         H            0.253697088431    -1.125284255996     1.002144864843     1.007825032230
         H            0.373382488431    -1.388618655996    -0.769648635157     1.007825032230
         O           -3.606587011569    -0.320847355996     0.232062664843    15.994914619570
         H           -3.578748711569    -1.238143455996     0.502547064843     1.007825032230
         H           -2.708459111569    -0.016375655996     0.095236264843     1.007825032230

  Charge       = 0
  Multiplicity = 1
  Basis Set: AUG-CC-PVQZ
    Blend: AUG-CC-PVQZ
  Basis Set: (AUG-CC-PVQZ AUX)
    Blend: AUG-CC-PVQZ-JKFIT

    Orbital Energies [Eh]
    ---------------------

    Doubly Occupied:

       1A   -104.865154     2A   -104.858900     3A    -20.550247
       4A    -11.378238     5A    -10.591168     6A    -10.584350
       7A     -8.058197     8A     -8.056488     9A     -8.056327
      10A     -8.051423    11A     -8.049589    12A     -8.049493
      13A     -1.340171    14A     -1.205812    15A     -1.111704
      16A     -0.908335    17A     -0.719311    18A     -0.686380
      19A     -0.630583    20A     -0.599421    21A     -0.569315
      22A     -0.499803    23A     -0.487505    24A     -0.484342
      25A     -0.462741    26A     -0.458405

  @DF-RHF Final Energy: -1034.15168771293679

   => Energetics <=

    Nuclear Repulsion Energy =            198.2756700145827153
    One-Electron Energy =               -1822.2279005820971634
    Two-Electron Energy =                 589.8005428545777704
    Total Energy =                      -1034.1516877129367913

  Dipole Moment: [D]
     X:     1.5820      Y:    -2.6186      Z:     0.3760     Total:     3.0824

  Basis Set: (AUG-CC-PVQZ AUX)
    Blend: AUG-CC-PVQZ-RI
	 Reference Energy          =   -1034.1516877129367913 [Eh]
	 Singles Energy            =      -0.0000000000000000 [Eh]
	 Same-Spin Energy          =      -0.2106768062783950 [Eh]
	 Opposite-Spin Energy      =      -0.6879873668698546 [Eh]
	 Correlation Energy        =      -0.8986641731482496 [Eh]
	 Total Energy              =   -1035.0503518860850818 [Eh]

	 ================> DF-SCS-MP2 Energies <==================
	-----------------------------------------------------------
	 SCS Same-Spin Scale       =       0.3333333333333333 [-]
	 SCS Opposite-Spin Scale   =       1.2000000000000000 [-]
	 SCS Same-Spin Energy      =      -0.0702256020927983 [Eh]
	 SCS Opposite-Spin Energy  =      -0.8255848402438255 [Eh]
	 SCS Correlation Energy    =      -0.8958104423366238 [Eh]
	 SCS Total Energy          =   -1035.0474981552733880 [Eh]
	-----------------------------------------------------------

*** Psi4 exiting successfully. Buy a developer a beer!
