                               Psi4 1.3.2 release

  ==> Input File <==

--------------------------------------------------------------------------
molecule {
0 1
 Cl                 -0.8869533     0.6775213    -0.2883658
 Cl                  1.9056014    -0.2292421     0.0374276
  C                  0.1983835    -0.6935655    -0.0102364
  H                 -0.0561714    -1.1445283     0.9490648
  H                  0.0635140    -1.4078627    -0.8227287
--
0 1
  O                 -4.5896782    -0.5662275     0.2828378
  H                 -4.5618399    -1.4835237     0.5533222
  H                 -3.6915503    -0.2617558     0.1460113
}
memory 15GB
set_num_threads(4)
psi4_io.set_default_path("/scratch/bdw2292/Psi4-CH2Cl2")
set maxiter 500
set freeze_core True
set PROPERTIES_ORIGIN ["COM"]
e_dim= energy('mp2/aug-cc-pV[TQ]Z',bsse_type='cp')

psi4.print_out('CP Energy = %10.6f' % (e_dim))
clean()
--------------------------------------------------------------------------

    Molecular point group: c1
  Charge       = 0
  Multiplicity = 1
  Basis Set: AUG-CC-PVTZ
    Blend: AUG-CC-PVTZ
  Basis Set: (AUG-CC-PVTZ AUX)
    Blend: AUG-CC-PVTZ-JKFIT
  @DF-RHF Final Energy:   -76.06042415073065
    Total Energy =                        -76.0604241507306540
  Basis Set: (AUG-CC-PVTZ AUX)
    Blend: AUG-CC-PVTZ-RI
	 Reference Energy          =     -76.0604241507306540 [Eh]
	 Singles Energy            =      -0.0000000000000000 [Eh]
	 Same-Spin Energy          =      -0.0650916018043339 [Eh]
	 Opposite-Spin Energy      =      -0.2029660324710724 [Eh]
	 Correlation Energy        =      -0.2680576342754062 [Eh]
	 Total Energy              =     -76.3284817850060620 [Eh]
	 SCS Total Energy          =     -76.3256805902973809 [Eh]
    Molecular point group: c1
  Basis Set: AUG-CC-PVQZ
    Blend: AUG-CC-PVQZ
  Basis Set: (AUG-CC-PVQZ AUX)
    Blend: AUG-CC-PVQZ-JKFIT
  @DF-RHF Final Energy:   -76.06581168802298
    Total Energy =                        -76.0658116880229613
  Basis Set: (AUG-CC-PVQZ AUX)
  @DF-RHF Final Energy:   -76.06044213119193
    Total Energy =                        -76.0604421311919339
  @DF-RHF Final Energy:   -76.06581921911669
    Total Energy =                        -76.0658192191166904
  @DF-RHF Final Energy:  -958.07891077838747
    Total Energy =                       -958.0789107783875806
  @DF-RHF Final Energy:  -958.08858271103065
    Total Energy =                       -958.0885827110307673
  @DF-RHF Final Energy:  -958.07887011619107
    Total Energy =                       -958.0788701161910694
  @DF-RHF Final Energy:  -958.08857278629921
    Total Energy =                       -958.0885727862992098
  Multiplicity = 1
  @DF-RHF Final Energy: -1034.13976248271160
    Total Energy =                      -1034.1397624827116033
	 Singles Energy            =      -0.0000000000000000 [Eh]
	 Same-Spin Energy          =      -0.2029047410491981 [Eh]
	 Opposite-Spin Energy      =      -0.6324157238861288 [Eh]
	 Correlation Energy        =      -0.8353204649353269 [Eh]
	 Total Energy              =   -1034.9750829476470244 [Eh]
	 SCS Total Energy          =   -1034.9662962650579630 [Eh]
    Molecular point group: c1

    Geometry (in Angstrom), charge = 0, multiplicity = 1:

       Center              X                  Y                   Z               Mass
    ------------   -----------------  -----------------  -----------------  -----------------
         CL          -0.458169013003     0.736709266842    -0.253630368185    34.968852682000
         CL           2.334385686997    -0.170054133158     0.072163031815    34.968852682000
         C            0.627167786997    -0.634377533158     0.024499031815    12.000000000000
         H            0.372612886997    -1.085340333158     0.983800231815     1.007825032230
         H            0.492298286997    -1.348674733158    -0.787993268185     1.007825032230
         O           -4.160893913003    -0.507039533158     0.317573231815    15.994914619570
         H           -4.133055613003    -1.424335733158     0.588057631815     1.007825032230
         H           -3.262766013003    -0.202567833158     0.180746731815     1.007825032230

  Charge       = 0
  Multiplicity = 1
  Basis Set: AUG-CC-PVQZ
    Blend: AUG-CC-PVQZ
  Basis Set: (AUG-CC-PVQZ AUX)
    Blend: AUG-CC-PVQZ-JKFIT

    Orbital Energies [Eh]
    ---------------------

    Doubly Occupied:

       1A   -104.859757     2A   -104.855480     3A    -20.559769
       4A    -11.374179     5A    -10.585336     6A    -10.580977
       7A     -8.052399     8A     -8.050627     9A     -8.050518
      10A     -8.048048    11A     -8.046225    12A     -8.046131
      13A     -1.347097    14A     -1.200769    15A     -1.106220
      16A     -0.903605    17A     -0.722619    18A     -0.682368
      19A     -0.625813    20A     -0.594788    21A     -0.574587
      22A     -0.506421    23A     -0.483501    24A     -0.480095
      25A     -0.458668    26A     -0.454272

  @DF-RHF Final Energy: -1034.15482771356665

   => Energetics <=

    Nuclear Repulsion Energy =            189.7331349743968190
    One-Electron Energy =               -1805.2753762323845876
    Two-Electron Energy =                 581.3874135444211788
    Total Energy =                      -1034.1548277135666467

  Dipole Moment: [D]
     X:     1.2950      Y:    -2.6740      Z:     0.4069     Total:     2.9988

  Basis Set: (AUG-CC-PVQZ AUX)
    Blend: AUG-CC-PVQZ-RI
	 Reference Energy          =   -1034.1548277135666467 [Eh]
	 Singles Energy            =      -0.0000000000000000 [Eh]
	 Same-Spin Energy          =      -0.2093279172560570 [Eh]
	 Opposite-Spin Energy      =      -0.6864336223536793 [Eh]
	 Correlation Energy        =      -0.8957615396097363 [Eh]
	 Total Energy              =   -1035.0505892531764403 [Eh]

	 ================> DF-SCS-MP2 Energies <==================
	-----------------------------------------------------------
	 SCS Same-Spin Scale       =       0.3333333333333333 [-]
	 SCS Opposite-Spin Scale   =       1.2000000000000000 [-]
	 SCS Same-Spin Energy      =      -0.0697759724186857 [Eh]
	 SCS Opposite-Spin Energy  =      -0.8237203468244152 [Eh]
	 SCS Correlation Energy    =      -0.8934963192431009 [Eh]
	 SCS Total Energy          =   -1035.0483240328096599 [Eh]
	-----------------------------------------------------------

*** Psi4 exiting successfully. Buy a developer a beer!
