                               Psi4 1.3.2 release

  ==> Input File <==

--------------------------------------------------------------------------
molecule {
0 1
 Cl                 -1.5388435    -0.1931364     0.6760242
 Cl                  1.2369893     0.3960644    -0.1472336
  C                  0.0155402    -0.8508783     0.1416569
  H                  0.3883584    -1.5173747     0.9193488
  H                 -0.1425503    -1.3959932    -0.7887828
--
0 1
 Cl                 -3.5313751     2.7529595    -2.1258067
 Cl                 -0.6019480     2.4180998    -1.9680209
  C                 -2.1781424     1.6163713    -2.0301639
  H                 -2.2938122     1.0231838    -1.1235465
  H                 -2.2031056     0.9802636    -2.9148121
}
memory 15GB
set_num_threads(4)
psi4_io.set_default_path("/scratch/bdw2292/Psi4-CH2Cl2")
set maxiter 500
set freeze_core True
set PROPERTIES_ORIGIN ["COM"]
e_dim= energy('mp2/aug-cc-pV[TQ]Z',bsse_type='cp')

psi4.print_out('CP Energy = %10.6f' % (e_dim))
clean()
--------------------------------------------------------------------------

    Molecular point group: c1
  Charge       = 0
  Multiplicity = 1
  Basis Set: AUG-CC-PVTZ
    Blend: AUG-CC-PVTZ
  Basis Set: (AUG-CC-PVTZ AUX)
    Blend: AUG-CC-PVTZ-JKFIT
  @DF-RHF Final Energy:  -958.07889657850023
    Total Energy =                       -958.0788965785002347
  Basis Set: (AUG-CC-PVTZ AUX)
    Blend: AUG-CC-PVTZ-RI
	 Reference Energy          =    -958.0788965785002347 [Eh]
	 Singles Energy            =      -0.0000000000000000 [Eh]
	 Same-Spin Energy          =      -0.1372550633797179 [Eh]
	 Opposite-Spin Energy      =      -0.4286502501445105 [Eh]
	 Correlation Energy        =      -0.5659053135242285 [Eh]
	 Total Energy              =    -958.6448018920244749 [Eh]
	 SCS Total Energy          =    -958.6390285664668909 [Eh]
    Molecular point group: c1
  Basis Set: AUG-CC-PVQZ
    Blend: AUG-CC-PVQZ
  Basis Set: (AUG-CC-PVQZ AUX)
    Blend: AUG-CC-PVQZ-JKFIT
  @DF-RHF Final Energy:  -958.08860315419179
    Total Energy =                       -958.0886031541917873
  Basis Set: (AUG-CC-PVQZ AUX)
  @DF-RHF Final Energy:  -958.07898192927485
    Total Energy =                       -958.0789819292748462
  @DF-RHF Final Energy:  -958.08862768394181
    Total Energy =                       -958.0886276839418088
  @DF-RHF Final Energy:  -958.07899657711209
    Total Energy =                       -958.0789965771120933
  @DF-RHF Final Energy:  -958.08860661855419
    Total Energy =                       -958.0886066185541949
  @DF-RHF Final Energy:  -958.07887433681140
    Total Energy =                       -958.0788743368113956
  @DF-RHF Final Energy:  -958.08857991740797
    Total Energy =                       -958.0885799174079693
  Multiplicity = 1
  @DF-RHF Final Energy: -1916.14508665432732
    Total Energy =                      -1916.1450866543273150
	 Singles Energy            =      -0.0000000000000000 [Eh]
	 Same-Spin Energy          =      -0.2797304061478020 [Eh]
	 Opposite-Spin Energy      =      -0.8636052657269104 [Eh]
	 Correlation Energy        =      -1.1433356718747123 [Eh]
	 Total Energy              =   -1917.2884223262019532 [Eh]
	 SCS Total Energy          =   -1917.2746564419155675 [Eh]
    Molecular point group: c1

    Geometry (in Angstrom), charge = 0, multiplicity = 1:

       Center              X                  Y                   Z               Mass
    ------------   -----------------  -----------------  -----------------  -----------------
         CL          -0.435083788153    -1.361589075597     1.576915582423    34.968852682000
         CL           2.340749011847    -0.772388275597     0.753657782423    34.968852682000
         C            1.119299911847    -2.019330975597     1.042548282423    12.000000000000
         H            1.492118111847    -2.685827375597     1.820240182423     1.007825032230
         H            0.961209411847    -2.564445875597     0.112108582423     1.007825032230
         CL          -2.427615388153     1.584506824403    -1.224915317577    34.968852682000
         CL           0.501811711847     1.249647124403    -1.067129517577    34.968852682000
         C           -1.074382688153     0.447918624403    -1.129272517577    12.000000000000
         H           -1.190052488153    -0.145268875597    -0.222655117577     1.007825032230
         H           -1.099345888153    -0.188189075597    -2.013920717577     1.007825032230

  Charge       = 0
  Multiplicity = 1
  Basis Set: AUG-CC-PVQZ
    Blend: AUG-CC-PVQZ
  Basis Set: (AUG-CC-PVQZ AUX)
    Blend: AUG-CC-PVQZ-JKFIT

    Orbital Energies [Eh]
    ---------------------

    Doubly Occupied:

       1A   -104.859749     2A   -104.849444     3A   -104.839373
       4A   -104.836178     5A    -11.373591     6A    -11.350717
       7A    -10.586033     8A    -10.575325     9A    -10.564996
      10A    -10.562203    11A     -8.053041    12A     -8.051303
      13A     -8.051237    14A     -8.042357    15A     -8.040524
      16A     -8.040425    17A     -8.032070    18A     -8.030295
      19A     -8.030200    20A     -8.029231    21A     -8.027465
      22A     -8.027354    23A     -1.201446    24A     -1.181708
      25A     -1.106250    26A     -1.087711    27A     -0.904021
      28A     -0.885180    29A     -0.685329    30A     -0.664733
      31A     -0.625464    32A     -0.608221    33A     -0.594493
      34A     -0.576182    35A     -0.493026    36A     -0.482455
      37A     -0.465665    38A     -0.459541    39A     -0.456817
      40A     -0.455333    41A     -0.431413    42A     -0.427631

  @DF-RHF Final Energy: -1916.16435651410734

   => Energetics <=

    Nuclear Repulsion Energy =            494.8166926251361133
    One-Electron Energy =               -3632.6706366957150749
    Two-Electron Energy =                1221.6895875564716789
    Total Energy =                      -1916.1643565141073395

  Dipole Moment: [D]
     X:     0.4928      Y:    -3.6974      Z:     0.1333     Total:     3.7325

  Basis Set: (AUG-CC-PVQZ AUX)
    Blend: AUG-CC-PVQZ-RI
	 Reference Energy          =   -1916.1643565141073395 [Eh]
	 Singles Energy            =      -0.0000000000000000 [Eh]
	 Same-Spin Energy          =      -0.2885453381849384 [Eh]
	 Opposite-Spin Energy      =      -0.9406282598372345 [Eh]
	 Correlation Energy        =      -1.2291735980221730 [Eh]
	 Total Energy              =   -1917.3935301121296106 [Eh]

	 ================> DF-SCS-MP2 Energies <==================
	-----------------------------------------------------------
	 SCS Same-Spin Scale       =       0.3333333333333333 [-]
	 SCS Opposite-Spin Scale   =       1.2000000000000000 [-]
	 SCS Same-Spin Energy      =      -0.0961817793949795 [Eh]
	 SCS Opposite-Spin Energy  =      -1.1287539118046814 [Eh]
	 SCS Correlation Energy    =      -1.2249356911996609 [Eh]
	 SCS Total Energy          =   -1917.3892922053069015 [Eh]
	-----------------------------------------------------------

*** Psi4 exiting successfully. Buy a developer a beer!
