                               Psi4 1.3.2 release

  ==> Input File <==

--------------------------------------------------------------------------
molecule {
0 1
 Cl                 -1.6165076    -0.1445430    -0.0459072
 Cl                  1.2931214     0.2390112    -0.0222988
  C                 -0.0333139    -0.9299819     0.0416379
  H                  0.0307675    -1.4731636     0.9845730
  H                  0.0628634    -1.6089770    -0.8056818
--
0 1
  O                 -0.7337031     3.0931141    -0.0693007
  H                 -0.8211763     2.1663011     0.1568470
  H                 -0.1822118     3.1540878    -0.8488440
}
memory 15GB
set_num_threads(4)
psi4_io.set_default_path("/scratch/bdw2292/Psi4-CH2Cl2")
set maxiter 500
set freeze_core True
set PROPERTIES_ORIGIN ["COM"]
e_dim= energy('mp2/aug-cc-pV[TQ]Z',bsse_type='cp')

psi4.print_out('CP Energy = %10.6f' % (e_dim))
clean()
--------------------------------------------------------------------------

    Molecular point group: c1
  Charge       = 0
  Multiplicity = 1
  Basis Set: AUG-CC-PVTZ
    Blend: AUG-CC-PVTZ
  Basis Set: (AUG-CC-PVTZ AUX)
    Blend: AUG-CC-PVTZ-JKFIT
  @DF-RHF Final Energy:   -76.06051173613990
    Total Energy =                        -76.0605117361399010
  Basis Set: (AUG-CC-PVTZ AUX)
    Blend: AUG-CC-PVTZ-RI
	 Reference Energy          =     -76.0605117361399010 [Eh]
	 Singles Energy            =      -0.0000000000000000 [Eh]
	 Same-Spin Energy          =      -0.0650989667169233 [Eh]
	 Opposite-Spin Energy      =      -0.2029943227301070 [Eh]
	 Correlation Energy        =      -0.2680932894470302 [Eh]
	 Total Energy              =     -76.3286050255869242 [Eh]
	 SCS Total Energy          =     -76.3258045789883397 [Eh]
    Molecular point group: c1
  Basis Set: AUG-CC-PVQZ
    Blend: AUG-CC-PVQZ
  Basis Set: (AUG-CC-PVQZ AUX)
    Blend: AUG-CC-PVQZ-JKFIT
  @DF-RHF Final Energy:   -76.06590011153453
    Total Energy =                        -76.0659001115345461
  Basis Set: (AUG-CC-PVQZ AUX)
  @DF-RHF Final Energy:   -76.06056507819474
    Total Energy =                        -76.0605650781947418
  @DF-RHF Final Energy:   -76.06591998091429
    Total Energy =                        -76.0659199809142876
  @DF-RHF Final Energy:  -958.07897128947889
    Total Energy =                       -958.0789712894788863
  @DF-RHF Final Energy:  -958.08861457182934
    Total Energy =                       -958.0886145718293392
  @DF-RHF Final Energy:  -958.07888784208615
    Total Energy =                       -958.0788878420861465
  @DF-RHF Final Energy:  -958.08859704401129
    Total Energy =                       -958.0885970440112942
  Multiplicity = 1
  @DF-RHF Final Energy: -1034.13780734576699
    Total Energy =                      -1034.1378073457667597
	 Singles Energy            =      -0.0000000000000000 [Eh]
	 Same-Spin Energy          =      -0.2045073948263382 [Eh]
	 Opposite-Spin Energy      =      -0.6343016522324043 [Eh]
	 Correlation Energy        =      -0.8388090470587426 [Eh]
	 Total Energy              =   -1034.9766163928256901 [Eh]
	 SCS Total Energy          =   -1034.9671384600546844 [Eh]
    Molecular point group: c1

    Geometry (in Angstrom), charge = 0, multiplicity = 1:

       Center              X                  Y                   Z               Mass
    ------------   -----------------  -----------------  -----------------  -----------------
         CL          -1.377593622582    -0.574827754879    -0.011473349172    34.968852682000
         CL           1.532035377418    -0.191273554879     0.012135050828    34.968852682000
         C            0.205600077418    -1.360266654879     0.076071750828    12.000000000000
         H            0.269681477418    -1.903448354879     1.019006850828     1.007825032230
         H            0.301777377418    -2.039261754879    -0.771247949172     1.007825032230
         O           -0.494789122582     2.662829345121    -0.034866849172    15.994914619570
         H           -0.582262322582     1.736016345121     0.191280850828     1.007825032230
         H            0.056702177418     2.723803045121    -0.814410149172     1.007825032230

  Charge       = 0
  Multiplicity = 1
  Basis Set: AUG-CC-PVQZ
    Blend: AUG-CC-PVQZ
  Basis Set: (AUG-CC-PVQZ AUX)
    Blend: AUG-CC-PVQZ-JKFIT

    Orbital Energies [Eh]
    ---------------------

    Doubly Occupied:

       1A   -104.862564     2A   -104.859741     3A    -20.541611
       4A    -11.376901     5A    -10.588435     6A    -10.585460
       7A     -8.055472     8A     -8.053716     9A     -8.053582
      10A     -8.052517    11A     -8.050717    12A     -8.050607
      13A     -1.331126    14A     -1.206232    15A     -1.110275
      16A     -0.907499    17A     -0.706787    18A     -0.685567
      19A     -0.630884    20A     -0.598548    21A     -0.563444
      22A     -0.491282    23A     -0.487303    24A     -0.482781
      25A     -0.461472    26A     -0.458733

  @DF-RHF Final Energy: -1034.15283552936603

   => Energetics <=

    Nuclear Repulsion Energy =            207.8589996524289347
    One-Electron Energy =               -1841.5171480235853778
    Two-Electron Energy =                 599.5053128417903281
    Total Energy =                      -1034.1528355293660297

  Dipole Moment: [D]
     X:     1.0583      Y:    -3.7082      Z:    -0.7695     Total:     3.9323

  Basis Set: (AUG-CC-PVQZ AUX)
    Blend: AUG-CC-PVQZ-RI
	 Reference Energy          =   -1034.1528355293660297 [Eh]
	 Singles Energy            =      -0.0000000000000000 [Eh]
	 Same-Spin Energy          =      -0.2109567303184973 [Eh]
	 Opposite-Spin Energy      =      -0.6882480985316024 [Eh]
	 Correlation Energy        =      -0.8992048288500998 [Eh]
	 Total Energy              =   -1035.0520403582161180 [Eh]

	 ================> DF-SCS-MP2 Energies <==================
	-----------------------------------------------------------
	 SCS Same-Spin Scale       =       0.3333333333333333 [-]
	 SCS Opposite-Spin Scale   =       1.2000000000000000 [-]
	 SCS Same-Spin Energy      =      -0.0703189101061658 [Eh]
	 SCS Opposite-Spin Energy  =      -0.8258977182379229 [Eh]
	 SCS Correlation Energy    =      -0.8962166283440887 [Eh]
	 SCS Total Energy          =   -1035.0490521577100935 [Eh]
	-----------------------------------------------------------

*** Psi4 exiting successfully. Buy a developer a beer!
