                               Psi4 1.3.2 release

  ==> Input File <==

--------------------------------------------------------------------------
molecule {
0 1
 Cl                 -1.5388435    -0.1931364     0.6760242
 Cl                  1.2369893     0.3960644    -0.1472336
  C                  0.0155402    -0.8508783     0.1416569
  H                  0.3883584    -1.5173747     0.9193488
  H                 -0.1425503    -1.3959932    -0.7887828
--
0 1
 Cl                 -3.9088594     3.3611196    -3.0255920
 Cl                 -0.9794324     3.0262599    -2.8678063
  C                 -2.5556267     2.2245314    -2.9299492
  H                 -2.6712965     1.6313439    -2.0233319
  H                 -2.5805900     1.5884237    -3.8145975
}
memory 15GB
set_num_threads(4)
psi4_io.set_default_path("/scratch/bdw2292/Psi4-CH2Cl2")
set maxiter 500
set freeze_core True
set PROPERTIES_ORIGIN ["COM"]
e_dim= energy('mp2/aug-cc-pV[TQ]Z',bsse_type='cp')

psi4.print_out('CP Energy = %10.6f' % (e_dim))
clean()
--------------------------------------------------------------------------

    Molecular point group: c1
  Charge       = 0
  Multiplicity = 1
  Basis Set: AUG-CC-PVTZ
    Blend: AUG-CC-PVTZ
  Basis Set: (AUG-CC-PVTZ AUX)
    Blend: AUG-CC-PVTZ-JKFIT
  @DF-RHF Final Energy:  -958.07889657912153
    Total Energy =                       -958.0788965791214196
  Basis Set: (AUG-CC-PVTZ AUX)
    Blend: AUG-CC-PVTZ-RI
	 Reference Energy          =    -958.0788965791215333 [Eh]
	 Singles Energy            =      -0.0000000000000000 [Eh]
	 Same-Spin Energy          =      -0.1372550640187924 [Eh]
	 Opposite-Spin Energy      =      -0.4286502496070748 [Eh]
	 Correlation Energy        =      -0.5659053136258672 [Eh]
	 Total Energy              =    -958.6448018927474095 [Eh]
	 SCS Total Energy          =    -958.6390285666562932 [Eh]
    Molecular point group: c1
  Basis Set: AUG-CC-PVQZ
    Blend: AUG-CC-PVQZ
  Basis Set: (AUG-CC-PVQZ AUX)
    Blend: AUG-CC-PVQZ-JKFIT
  @DF-RHF Final Energy:  -958.08860315499339
    Total Energy =                       -958.0886031549933932
  Basis Set: (AUG-CC-PVQZ AUX)
  @DF-RHF Final Energy:  -958.07892343313881
    Total Energy =                       -958.0789234331389252
  @DF-RHF Final Energy:  -958.08861448450295
    Total Energy =                       -958.0886144845029548
  @DF-RHF Final Energy:  -958.07892064181965
    Total Energy =                       -958.0789206418196500
  @DF-RHF Final Energy:  -958.08859313665585
    Total Energy =                       -958.0885931366558452
  @DF-RHF Final Energy:  -958.07887433670919
    Total Energy =                       -958.0788743367091911
  @DF-RHF Final Energy:  -958.08857991763671
    Total Energy =                       -958.0885799176367073
  Multiplicity = 1
  @DF-RHF Final Energy: -1916.15766999630409
    Total Energy =                      -1916.1576699963040937
	 Singles Energy            =      -0.0000000000000000 [Eh]
	 Same-Spin Energy          =      -0.2754786799952014 [Eh]
	 Opposite-Spin Energy      =      -0.8585446207879344 [Eh]
	 Correlation Energy        =      -1.1340233007831357 [Eh]
	 Total Energy              =   -1917.2916932970872494 [Eh]
	 SCS Total Energy          =   -1917.2797497679146090 [Eh]
    Molecular point group: c1

    Geometry (in Angstrom), charge = 0, multiplicity = 1:

       Center              X                  Y                   Z               Mass
    ------------   -----------------  -----------------  -----------------  -----------------
         CL          -0.246341616726    -1.665669125597     2.026808254449    34.968852682000
         CL           2.529491183274    -1.076468325597     1.203550454449    34.968852682000
         C            1.308042083274    -2.323411025597     1.492440954449    12.000000000000
         H            1.680860283274    -2.989907425597     2.270132854449     1.007825032230
         H            1.149951583274    -2.868525925597     0.562001254449     1.007825032230
         CL          -2.616357516726     1.888586874403    -1.674807945551    34.968852682000
         CL           0.313069483274     1.553727174403    -1.517022245551    34.968852682000
         C           -1.263124816726     0.751998674403    -1.579165145551    12.000000000000
         H           -1.378794616726     0.158811174403    -0.672547845551     1.007825032230
         H           -1.288088116726     0.115890974403    -2.463813445551     1.007825032230

  Charge       = 0
  Multiplicity = 1
  Basis Set: AUG-CC-PVQZ
    Blend: AUG-CC-PVQZ
  Basis Set: (AUG-CC-PVQZ AUX)
    Blend: AUG-CC-PVQZ-JKFIT

    Orbital Energies [Eh]
    ---------------------

    Doubly Occupied:

       1A   -104.854986     2A   -104.851017     3A   -104.844360
       4A   -104.843127     5A    -11.369921     6A    -11.360385
       7A    -10.580571     8A    -10.576551     9A    -10.569934
      10A    -10.568700    11A     -8.047641    12A     -8.045852
      13A     -8.045769    14A     -8.043622    15A     -8.041797
      16A     -8.041703    17A     -8.037007    18A     -8.035772
      19A     -8.035209    20A     -8.035117    21A     -8.033965
      22A     -8.033871    23A     -1.196487    24A     -1.187299
      25A     -1.101757    26A     -1.092495    27A     -0.899367
      28A     -0.890131    29A     -0.678357    30A     -0.668978
      31A     -0.621292    32A     -0.612143    33A     -0.590631
      34A     -0.581480    35A     -0.479937    36A     -0.475820
      37A     -0.469599    38A     -0.466126    39A     -0.453611
      40A     -0.450755    41A     -0.443627    42A     -0.440805

  @DF-RHF Final Energy: -1916.17703883075615

   => Energetics <=

    Nuclear Repulsion Energy =            447.6854720016965530
    One-Electron Energy =               -3538.3298676417480237
    Two-Electron Energy =                1174.4673568092955520
    Total Energy =                      -1916.1770388307561461

  Dipole Moment: [D]
     X:     0.2876      Y:    -3.5894      Z:    -0.0512     Total:     3.6013

  Basis Set: (AUG-CC-PVQZ AUX)
    Blend: AUG-CC-PVQZ-RI
	 Reference Energy          =   -1916.1770388307561461 [Eh]
	 Singles Energy            =      -0.0000000000000000 [Eh]
	 Same-Spin Energy          =      -0.2842029087582309 [Eh]
	 Opposite-Spin Energy      =      -0.9356215829596090 [Eh]
	 Correlation Energy        =      -1.2198244917178398 [Eh]
	 Total Energy              =   -1917.3968633224740188 [Eh]

	 ================> DF-SCS-MP2 Energies <==================
	-----------------------------------------------------------
	 SCS Same-Spin Scale       =       0.3333333333333333 [-]
	 SCS Opposite-Spin Scale   =       1.2000000000000000 [-]
	 SCS Same-Spin Energy      =      -0.0947343029194103 [Eh]
	 SCS Opposite-Spin Energy  =      -1.1227458995515307 [Eh]
	 SCS Correlation Energy    =      -1.2174802024709410 [Eh]
	 SCS Total Energy          =   -1917.3945190332271977 [Eh]
	-----------------------------------------------------------

*** Psi4 exiting successfully. Buy a developer a beer!
