                               Psi4 1.3.2 release

  ==> Input File <==

--------------------------------------------------------------------------
molecule {
0 1
 Cl                 -1.6165076    -0.1445430    -0.0459072
 Cl                  1.2931214     0.2390112    -0.0222988
  C                 -0.0333139    -0.9299819     0.0416379
  H                  0.0307675    -1.4731636     0.9845730
  H                  0.0628634    -1.6089770    -0.8056818
--
0 1
  O                 -0.6453329     3.3498745    -0.0467725
  H                 -0.7328061     2.4230615     0.1793752
  H                 -0.0938417     3.4108483    -0.8263158
}
memory 15GB
set_num_threads(4)
psi4_io.set_default_path("/scratch/bdw2292/Psi4-CH2Cl2")
set maxiter 500
set freeze_core True
set PROPERTIES_ORIGIN ["COM"]
e_dim= energy('mp2/aug-cc-pV[TQ]Z',bsse_type='cp')

psi4.print_out('CP Energy = %10.6f' % (e_dim))
clean()
--------------------------------------------------------------------------

    Molecular point group: c1
  Charge       = 0
  Multiplicity = 1
  Basis Set: AUG-CC-PVTZ
    Blend: AUG-CC-PVTZ
  Basis Set: (AUG-CC-PVTZ AUX)
    Blend: AUG-CC-PVTZ-JKFIT
  @DF-RHF Final Energy:   -76.06051173719504
    Total Energy =                        -76.0605117371950570
  Basis Set: (AUG-CC-PVTZ AUX)
    Blend: AUG-CC-PVTZ-RI
	 Reference Energy          =     -76.0605117371950428 [Eh]
	 Singles Energy            =      -0.0000000000000000 [Eh]
	 Same-Spin Energy          =      -0.0650989661704045 [Eh]
	 Opposite-Spin Energy      =      -0.2029943208699011 [Eh]
	 Correlation Energy        =      -0.2680932870403057 [Eh]
	 Total Energy              =     -76.3286050242353440 [Eh]
	 SCS Total Energy          =     -76.3258045776290572 [Eh]
    Molecular point group: c1
  Basis Set: AUG-CC-PVQZ
    Blend: AUG-CC-PVQZ
  Basis Set: (AUG-CC-PVQZ AUX)
    Blend: AUG-CC-PVQZ-JKFIT
  @DF-RHF Final Energy:   -76.06590011270232
    Total Energy =                        -76.0659001127023231
  Basis Set: (AUG-CC-PVQZ AUX)
  @DF-RHF Final Energy:   -76.06055562158657
    Total Energy =                        -76.0605556215865874
  @DF-RHF Final Energy:   -76.06591627629507
    Total Energy =                        -76.0659162762950700
  @DF-RHF Final Energy:  -958.07895737929641
    Total Energy =                       -958.0789573792964120
  @DF-RHF Final Energy:  -958.08861145138121
    Total Energy =                       -958.0886114513812117
  @DF-RHF Final Energy:  -958.07888784200077
    Total Energy =                       -958.0788878420007677
  @DF-RHF Final Energy:  -958.08859704403073
    Total Energy =                       -958.0885970440307347
  Multiplicity = 1
  @DF-RHF Final Energy: -1034.13981107517361
    Total Energy =                      -1034.1398110751738386
	 Singles Energy            =      -0.0000000000000000 [Eh]
	 Same-Spin Energy          =      -0.2038106664147861 [Eh]
	 Opposite-Spin Energy      =      -0.6334627918388620 [Eh]
	 Correlation Energy        =      -0.8372734582536481 [Eh]
	 Total Energy              =   -1034.9770845334271598 [Eh]
	 SCS Total Energy          =   -1034.9679033141851505 [Eh]
    Molecular point group: c1

    Geometry (in Angstrom), charge = 0, multiplicity = 1:

       Center              X                  Y                   Z               Mass
    ------------   -----------------  -----------------  -----------------  -----------------
         CL          -1.393203037174    -0.620181051302    -0.015452654821    34.968852682000
         CL           1.516425962826    -0.236626851302     0.008155745179    34.968852682000
         C            0.189990662826    -1.405619951302     0.072092445179    12.000000000000
         H            0.254072062826    -1.948801651302     1.015027545179     1.007825032230
         H            0.286167962826    -2.084615051302    -0.775227254821     1.007825032230
         O           -0.422028337174     2.874236448698    -0.016317954821    15.994914619570
         H           -0.509501537174     1.947423448698     0.209829745179     1.007825032230
         H            0.129462862826     2.935210248698    -0.795861254821     1.007825032230

  Charge       = 0
  Multiplicity = 1
  Basis Set: AUG-CC-PVQZ
    Blend: AUG-CC-PVQZ
  Basis Set: (AUG-CC-PVQZ AUX)
    Blend: AUG-CC-PVQZ-JKFIT

    Orbital Energies [Eh]
    ---------------------

    Doubly Occupied:

       1A   -104.860821     2A   -104.859461     3A    -20.545748
       4A    -11.375868     5A    -10.586525     6A    -10.585144
       7A     -8.053579     8A     -8.052205     9A     -8.051798
      10A     -8.051684    11A     -8.050408    12A     -8.050303
      13A     -1.334087    14A     -1.204726    15A     -1.108755
      16A     -0.906165    17A     -0.708601    18A     -0.684528
      19A     -0.629419    20A     -0.597240    21A     -0.564701
      22A     -0.493764    23A     -0.485929    24A     -0.483443
      25A     -0.460414    26A     -0.457771

  @DF-RHF Final Energy: -1034.15485114930698

   => Energetics <=

    Nuclear Repulsion Energy =            203.9819166535673105
    One-Electron Energy =               -1833.7873574072523297
    Two-Electron Energy =                 595.6505896043779558
    Total Energy =                      -1034.1548511493069782

  Dipole Moment: [D]
     X:     1.0522      Y:    -3.6515      Z:    -0.7769     Total:     3.8786

  Basis Set: (AUG-CC-PVQZ AUX)
    Blend: AUG-CC-PVQZ-RI
	 Reference Energy          =   -1034.1548511493069782 [Eh]
	 Singles Energy            =      -0.0000000000000000 [Eh]
	 Same-Spin Energy          =      -0.2102492726411039 [Eh]
	 Opposite-Spin Energy      =      -0.6874190191804129 [Eh]
	 Correlation Energy        =      -0.8976682918215169 [Eh]
	 Total Energy              =   -1035.0525194411284247 [Eh]

	 ================> DF-SCS-MP2 Energies <==================
	-----------------------------------------------------------
	 SCS Same-Spin Scale       =       0.3333333333333333 [-]
	 SCS Opposite-Spin Scale   =       1.2000000000000000 [-]
	 SCS Same-Spin Energy      =      -0.0700830908803680 [Eh]
	 SCS Opposite-Spin Energy  =      -0.8249028230164955 [Eh]
	 SCS Correlation Energy    =      -0.8949859138968635 [Eh]
	 SCS Total Energy          =   -1035.0498370632037677 [Eh]
	-----------------------------------------------------------

*** Psi4 exiting successfully. Buy a developer a beer!
