                               Psi4 1.3.2 release

  ==> Input File <==

--------------------------------------------------------------------------
molecule {
0 1
 Cl                 -0.8869533     0.6775213    -0.2883658
 Cl                  1.9056014    -0.2292421     0.0374276
  C                  0.1983835    -0.6935655    -0.0102364
  H                 -0.0561714    -1.1445283     0.9490648
  H                  0.0635140    -1.4078627    -0.8227287
--
0 1
  O                 -3.7481498    -0.2835573     0.1530188
  H                 -3.7203115    -1.2008535     0.4235032
  H                 -2.8500219     0.0209144     0.0161924
}
memory 15GB
set_num_threads(4)
psi4_io.set_default_path("/scratch/bdw2292/Psi4-CH2Cl2")
set maxiter 500
set freeze_core True
set PROPERTIES_ORIGIN ["COM"]
e_dim= energy('mp2/aug-cc-pV[TQ]Z',bsse_type='cp')

psi4.print_out('CP Energy = %10.6f' % (e_dim))
clean()
--------------------------------------------------------------------------

    Molecular point group: c1
  Charge       = 0
  Multiplicity = 1
  Basis Set: AUG-CC-PVTZ
    Blend: AUG-CC-PVTZ
  Basis Set: (AUG-CC-PVTZ AUX)
    Blend: AUG-CC-PVTZ-JKFIT
  @DF-RHF Final Energy:   -76.06042415149940
    Total Energy =                        -76.0604241514994044
  Basis Set: (AUG-CC-PVTZ AUX)
    Blend: AUG-CC-PVTZ-RI
	 Reference Energy          =     -76.0604241514994044 [Eh]
	 Singles Energy            =      -0.0000000000000000 [Eh]
	 Same-Spin Energy          =      -0.0650916016913132 [Eh]
	 Opposite-Spin Energy      =      -0.2029660321006525 [Eh]
	 Correlation Energy        =      -0.2680576337919657 [Eh]
	 Total Energy              =     -76.3284817852913733 [Eh]
	 SCS Total Energy          =     -76.3256805905839570 [Eh]
    Molecular point group: c1
  Basis Set: AUG-CC-PVQZ
    Blend: AUG-CC-PVQZ
  Basis Set: (AUG-CC-PVQZ AUX)
    Blend: AUG-CC-PVQZ-JKFIT
  @DF-RHF Final Energy:   -76.06581168881763
    Total Energy =                        -76.0658116888176465
  Basis Set: (AUG-CC-PVQZ AUX)
  @DF-RHF Final Energy:   -76.06047760708674
    Total Energy =                        -76.0604776070867388
  @DF-RHF Final Energy:   -76.06583054198379
    Total Energy =                        -76.0658305419837859
  @DF-RHF Final Energy:  -958.07895066943286
    Total Energy =                       -958.0789506694328566
  @DF-RHF Final Energy:  -958.08859264025773
    Total Energy =                       -958.0885926402577297
  @DF-RHF Final Energy:  -958.07887011629282
    Total Energy =                       -958.0788701162928191
  @DF-RHF Final Energy:  -958.08857278626681
    Total Energy =                       -958.0885727862666954
  Multiplicity = 1
  @DF-RHF Final Energy: -1034.13287655445311
    Total Energy =                      -1034.1328765544531052
	 Singles Energy            =      -0.0000000000000000 [Eh]
	 Same-Spin Energy          =      -0.2049628702171649 [Eh]
	 Opposite-Spin Energy      =      -0.6348185328158594 [Eh]
	 Correlation Energy        =      -0.8397814030330244 [Eh]
	 Total Energy              =   -1034.9726579574860352 [Eh]
	 SCS Total Energy          =   -1034.9629797505710940 [Eh]
    Molecular point group: c1

    Geometry (in Angstrom), charge = 0, multiplicity = 1:

       Center              X                  Y                   Z               Mass
    ------------   -----------------  -----------------  -----------------  -----------------
         CL          -0.606813765627     0.686779351283    -0.230699576652    34.968852682000
         CL           2.185740934373    -0.219984048717     0.095093823348    34.968852682000
         C            0.478523034373    -0.684307448717     0.047429823348    12.000000000000
         H            0.223968134373    -1.135270248717     1.006731023348     1.007825032230
         H            0.343653534373    -1.398604648717    -0.765062476652     1.007825032230
         O           -3.468010265627    -0.274299248717     0.210685023348    15.994914619570
         H           -3.440171965627    -1.191595448717     0.481169423348     1.007825032230
         H           -2.569882365627     0.030172451283     0.073858623348     1.007825032230

  Charge       = 0
  Multiplicity = 1
  Basis Set: AUG-CC-PVQZ
    Blend: AUG-CC-PVQZ
  Basis Set: (AUG-CC-PVQZ AUX)
    Blend: AUG-CC-PVQZ-JKFIT

    Orbital Energies [Eh]
    ---------------------

    Doubly Occupied:

       1A   -104.866640     2A   -104.860149     3A    -20.545164
       4A    -11.379736     5A    -10.593011     6A    -10.585581
       7A     -8.060007     8A     -8.058345     9A     -8.058139
      10A     -8.052655    11A     -8.050816    12A     -8.050719
      13A     -1.337202    14A     -1.207797    15A     -1.113983
      16A     -0.910305    17A     -0.719657    18A     -0.687844
      19A     -0.631668    20A     -0.601147    21A     -0.567507
      22A     -0.498232    23A     -0.487359    24A     -0.484973
      25A     -0.463314    26A     -0.459796

  @DF-RHF Final Energy: -1034.14789375641567

   => Energetics <=

    Nuclear Repulsion Energy =            200.9629062056392002
    One-Electron Energy =               -1827.5580998865916627
    Two-Electron Energy =                 592.4472999245368783
    Total Energy =                      -1034.1478937564156695

  Dipole Moment: [D]
     X:     1.7015      Y:    -2.5960      Z:     0.3630     Total:     3.1250

  Basis Set: (AUG-CC-PVQZ AUX)
    Blend: AUG-CC-PVQZ-RI
	 Reference Energy          =   -1034.1478937564156695 [Eh]
	 Singles Energy            =      -0.0000000000000000 [Eh]
	 Same-Spin Energy          =      -0.2114073178526484 [Eh]
	 Opposite-Spin Energy      =      -0.6888110962356233 [Eh]
	 Correlation Energy        =      -0.9002184140882717 [Eh]
	 Total Energy              =   -1035.0481121705038277 [Eh]

	 ================> DF-SCS-MP2 Energies <==================
	-----------------------------------------------------------
	 SCS Same-Spin Scale       =       0.3333333333333333 [-]
	 SCS Opposite-Spin Scale   =       1.2000000000000000 [-]
	 SCS Same-Spin Energy      =      -0.0704691059508828 [Eh]
	 SCS Opposite-Spin Energy  =      -0.8265733154827479 [Eh]
	 SCS Correlation Energy    =      -0.8970424214336308 [Eh]
	 SCS Total Energy          =   -1035.0449361778491948 [Eh]
	-----------------------------------------------------------

*** Psi4 exiting successfully. Buy a developer a beer!
