                               Psi4 1.3.2 release

  ==> Input File <==

--------------------------------------------------------------------------
molecule {
0 1
 Cl                 -0.8869533     0.6775213    -0.2883658
 Cl                  1.9056014    -0.2292421     0.0374276
  C                  0.1983835    -0.6935655    -0.0102364
  H                 -0.0561714    -1.1445283     0.9490648
  H                  0.0635140    -1.4078627    -0.8227287
--
0 1
  O                 -4.9262895    -0.6792956     0.3347653
  H                 -4.8984512    -1.5965917     0.6052498
  H                 -4.0281616    -0.3748239     0.1979389
}
memory 15GB
set_num_threads(4)
psi4_io.set_default_path("/scratch/bdw2292/Psi4-CH2Cl2")
set maxiter 500
set freeze_core True
set PROPERTIES_ORIGIN ["COM"]
e_dim= energy('mp2/aug-cc-pV[TQ]Z',bsse_type='cp')

psi4.print_out('CP Energy = %10.6f' % (e_dim))
clean()
--------------------------------------------------------------------------

    Molecular point group: c1
  Charge       = 0
  Multiplicity = 1
  Basis Set: AUG-CC-PVTZ
    Blend: AUG-CC-PVTZ
  Basis Set: (AUG-CC-PVTZ AUX)
    Blend: AUG-CC-PVTZ-JKFIT
  @DF-RHF Final Energy:   -76.06042415383553
    Total Energy =                        -76.0604241538355268
  Basis Set: (AUG-CC-PVTZ AUX)
    Blend: AUG-CC-PVTZ-RI
	 Reference Energy          =     -76.0604241538355268 [Eh]
	 Singles Energy            =      -0.0000000000000000 [Eh]
	 Same-Spin Energy          =      -0.0650916010752891 [Eh]
	 Opposite-Spin Energy      =      -0.2029660300292249 [Eh]
	 Correlation Energy        =      -0.2680576311045140 [Eh]
	 Total Energy              =     -76.3284817849400383 [Eh]
	 SCS Total Energy          =     -76.3256805902290267 [Eh]
    Molecular point group: c1
  Basis Set: AUG-CC-PVQZ
    Blend: AUG-CC-PVQZ
  Basis Set: (AUG-CC-PVQZ AUX)
    Blend: AUG-CC-PVQZ-JKFIT
  @DF-RHF Final Energy:   -76.06581169132352
    Total Energy =                        -76.0658116913235176
  Basis Set: (AUG-CC-PVQZ AUX)
  @DF-RHF Final Energy:   -76.06043605502215
    Total Energy =                        -76.0604360550221514
  @DF-RHF Final Energy:   -76.06581652087326
    Total Energy =                        -76.0658165208732555
  @DF-RHF Final Energy:  -958.07889827981944
    Total Energy =                       -958.0788982798194411
  @DF-RHF Final Energy:  -958.08857990043634
    Total Energy =                       -958.0885799004363435
  @DF-RHF Final Energy:  -958.07887011634693
    Total Energy =                       -958.0788701163469341
  @DF-RHF Final Energy:  -958.08857278639937
    Total Energy =                       -958.0885727863993679
  Multiplicity = 1
  @DF-RHF Final Energy: -1034.13965362953104
    Total Energy =                      -1034.1396536295310398
	 Singles Energy            =      -0.0000000000000000 [Eh]
	 Same-Spin Energy          =      -0.2026654779341379 [Eh]
	 Opposite-Spin Energy      =      -0.6320916987997443 [Eh]
	 Correlation Energy        =      -0.8347571767338822 [Eh]
	 Total Energy              =   -1034.9744108062648138 [Eh]
	 SCS Total Energy          =   -1034.9657188274020427 [Eh]
    Molecular point group: c1

    Geometry (in Angstrom), charge = 0, multiplicity = 1:

       Center              X                  Y                   Z               Mass
    ------------   -----------------  -----------------  -----------------  -----------------
         CL          -0.398711122552     0.756681235610    -0.262802669506    34.968852682000
         CL           2.393843577448    -0.150082164390     0.062990730494    34.968852682000
         C            0.686625677448    -0.614405564390     0.015326730494    12.000000000000
         H            0.432070777448    -1.065368364390     0.974627930494     1.007825032230
         H            0.551756177448    -1.328702764390    -0.797165569506     1.007825032230
         O           -4.438047322552    -0.600135664390     0.360328430494    15.994914619570
         H           -4.410209022552    -1.517431764390     0.630812930494     1.007825032230
         H           -3.539919422552    -0.295663964390     0.223502030494     1.007825032230

  Charge       = 0
  Multiplicity = 1
  Basis Set: AUG-CC-PVQZ
    Blend: AUG-CC-PVQZ
  Basis Set: (AUG-CC-PVQZ AUX)
    Blend: AUG-CC-PVQZ-JKFIT

    Orbital Energies [Eh]
    ---------------------

    Doubly Occupied:

       1A   -104.857745     2A   -104.854369     3A    -20.561526
       4A    -11.372853     5A    -10.583292     6A    -10.579880
       7A     -8.050358     8A     -8.048575     9A     -8.048473
      10A     -8.046951    11A     -8.045131    12A     -8.045038
      13A     -1.348623    14A     -1.199225    15A     -1.104604
      16A     -0.902173    17A     -0.723939    18A     -0.681049
      19A     -0.624196    20A     -0.593308    21A     -0.575924
      22A     -0.507955    23A     -0.481956    24A     -0.478444
      25A     -0.456996    26A     -0.452887

  @DF-RHF Final Energy: -1034.15472353211635

   => Energetics <=

    Nuclear Repulsion Energy =            186.4189254489074017
    One-Electron Energy =               -1798.6963479226924392
    Two-Electron Energy =                 578.1226989416686592
    Total Energy =                      -1034.1547235321163498

  Dipole Moment: [D]
     X:     1.2184      Y:    -2.6900      Z:     0.4153     Total:     2.9821

  Basis Set: (AUG-CC-PVQZ AUX)
    Blend: AUG-CC-PVQZ-RI
	 Reference Energy          =   -1034.1547235321163498 [Eh]
	 Singles Energy            =      -0.0000000000000000 [Eh]
	 Same-Spin Energy          =      -0.2090920015717386 [Eh]
	 Opposite-Spin Energy      =      -0.6861609734497638 [Eh]
	 Correlation Energy        =      -0.8952529750215024 [Eh]
	 Total Energy              =   -1035.0499765071378988 [Eh]

	 ================> DF-SCS-MP2 Energies <==================
	-----------------------------------------------------------
	 SCS Same-Spin Scale       =       0.3333333333333333 [-]
	 SCS Opposite-Spin Scale   =       1.2000000000000000 [-]
	 SCS Same-Spin Energy      =      -0.0696973338572462 [Eh]
	 SCS Opposite-Spin Energy  =      -0.8233931681397165 [Eh]
	 SCS Correlation Energy    =      -0.8930905019969627 [Eh]
	 SCS Total Energy          =   -1035.0478140341133440 [Eh]
	-----------------------------------------------------------

*** Psi4 exiting successfully. Buy a developer a beer!
