                               Psi4 1.3.2 release

  ==> Input File <==

--------------------------------------------------------------------------
molecule {
0 1
 Cl                 -1.5388435    -0.1931364     0.6760242
 Cl                  1.2369893     0.3960644    -0.1472336
  C                  0.0155402    -0.8508783     0.1416569
  H                  0.3883584    -1.5173747     0.9193488
  H                 -0.1425503    -1.3959932    -0.7887828
--
0 1
 Cl                 -3.5785606     2.8289795    -2.2382798
 Cl                 -0.6491335     2.4941198    -2.0804941
  C                 -2.2253279     1.6923913    -2.1426370
  H                 -2.3409977     1.0992038    -1.2360197
  H                 -2.2502912     1.0562836    -3.0272853
}
memory 15GB
set_num_threads(4)
psi4_io.set_default_path("/scratch/bdw2292/Psi4-CH2Cl2")
set maxiter 500
set freeze_core True
set PROPERTIES_ORIGIN ["COM"]
e_dim= energy('mp2/aug-cc-pV[TQ]Z',bsse_type='cp')

psi4.print_out('CP Energy = %10.6f' % (e_dim))
clean()
--------------------------------------------------------------------------

    Molecular point group: c1
  Charge       = 0
  Multiplicity = 1
  Basis Set: AUG-CC-PVTZ
    Blend: AUG-CC-PVTZ
  Basis Set: (AUG-CC-PVTZ AUX)
    Blend: AUG-CC-PVTZ-JKFIT
  @DF-RHF Final Energy:  -958.07889657876513
    Total Energy =                       -958.0788965787651250
  Basis Set: (AUG-CC-PVTZ AUX)
    Blend: AUG-CC-PVTZ-RI
	 Reference Energy          =    -958.0788965787651250 [Eh]
	 Singles Energy            =      -0.0000000000000000 [Eh]
	 Same-Spin Energy          =      -0.1372550634001810 [Eh]
	 Opposite-Spin Energy      =      -0.4286502501271625 [Eh]
	 Correlation Energy        =      -0.5659053135273435 [Eh]
	 Total Energy              =    -958.6448018922924348 [Eh]
	 SCS Total Energy          =    -958.6390285667177977 [Eh]
    Molecular point group: c1
  Basis Set: AUG-CC-PVQZ
    Blend: AUG-CC-PVQZ
  Basis Set: (AUG-CC-PVQZ AUX)
    Blend: AUG-CC-PVQZ-JKFIT
  @DF-RHF Final Energy:  -958.08860315429627
    Total Energy =                       -958.0886031542962655
  Basis Set: (AUG-CC-PVQZ AUX)
  @DF-RHF Final Energy:  -958.07897453902899
    Total Energy =                       -958.0789745390289909
  @DF-RHF Final Energy:  -958.08862548568868
    Total Energy =                       -958.0886254856886808
  @DF-RHF Final Energy:  -958.07898742567716
    Total Energy =                       -958.0789874256771554
  @DF-RHF Final Energy:  -958.08860477209544
    Total Energy =                       -958.0886047720953229
  @DF-RHF Final Energy:  -958.07887433677661
    Total Energy =                       -958.0788743367766074
  @DF-RHF Final Energy:  -958.08857991734055
    Total Energy =                       -958.0885799173405530
  Multiplicity = 1
  @DF-RHF Final Energy: -1916.14991934775139
    Total Energy =                      -1916.1499193477513927
	 Singles Energy            =      -0.0000000000000000 [Eh]
	 Same-Spin Energy          =      -0.2786776141052633 [Eh]
	 Opposite-Spin Energy      =      -0.8623938406620791 [Eh]
	 Correlation Energy        =      -1.1410714547673424 [Eh]
	 Total Energy              =   -1917.2909908025187633 [Eh]
	 SCS Total Energy          =   -1917.2776844945810808 [Eh]
    Molecular point group: c1

    Geometry (in Angstrom), charge = 0, multiplicity = 1:

       Center              X                  Y                   Z               Mass
    ------------   -----------------  -----------------  -----------------  -----------------
         CL          -0.411491037552    -1.399599075597     1.633152154449    34.968852682000
         CL           2.364341762448    -0.810398275597     0.809894354449    34.968852682000
         C            1.142892662448    -2.057340975597     1.098784854449    12.000000000000
         H            1.515710862448    -2.723837375597     1.876476754449     1.007825032230
         H            0.984802162448    -2.602455875597     0.168345154449     1.007825032230
         CL          -2.451208137552     1.622516824403    -1.281151845551    34.968852682000
         CL           0.478218962448     1.287657124403    -1.123366145551    34.968852682000
         C           -1.097975437552     0.485928624403    -1.185509045551    12.000000000000
         H           -1.213645237552    -0.107258875597    -0.278891745551     1.007825032230
         H           -1.122938737552    -0.150179075597    -2.070157345551     1.007825032230

  Charge       = 0
  Multiplicity = 1
  Basis Set: AUG-CC-PVQZ
    Blend: AUG-CC-PVQZ
  Basis Set: (AUG-CC-PVQZ AUX)
    Blend: AUG-CC-PVQZ-JKFIT

    Orbital Energies [Eh]
    ---------------------

    Doubly Occupied:

       1A   -104.859088     2A   -104.849968     3A   -104.840488
       4A   -104.837722     5A    -11.372830     6A    -11.353212
       7A    -10.585133     8A    -10.575730     9A    -10.566098
      10A    -10.563597    11A     -8.052167    12A     -8.050409
      13A     -8.050346    14A     -8.042777    15A     -8.040941
      16A     -8.040844    17A     -8.033172    18A     -8.031391
      19A     -8.031297    20A     -8.030643    21A     -8.028861
      22A     -8.028758    23A     -1.200201    24A     -1.182932
      25A     -1.105163    26A     -1.088672    27A     -0.902884
      28A     -0.886100    29A     -0.683489    30A     -0.665184
      31A     -0.624527    32A     -0.608837    33A     -0.593747
      34A     -0.577307    35A     -0.489632    36A     -0.481308
      37A     -0.465698    38A     -0.460859    39A     -0.456079
      40A     -0.455312    41A     -0.434152    42A     -0.431617

  @DF-RHF Final Energy: -1916.16919729632650

   => Energetics <=

    Nuclear Repulsion Energy =            487.6817389226478667
    One-Electron Energy =               -3618.3835205485966071
    Two-Electron Energy =                1214.5325843296220683
    Total Energy =                      -1916.1691972963265016

  Dipole Moment: [D]
     X:     0.4541      Y:    -3.6682      Z:     0.0948     Total:     3.6974

  Basis Set: (AUG-CC-PVQZ AUX)
    Blend: AUG-CC-PVQZ-RI
	 Reference Energy          =   -1916.1691972963265016 [Eh]
	 Singles Energy            =      -0.0000000000000000 [Eh]
	 Same-Spin Energy          =      -0.2874625261073588 [Eh]
	 Opposite-Spin Energy      =      -0.9393778340225915 [Eh]
	 Correlation Energy        =      -1.2268403601299502 [Eh]
	 Total Energy              =   -1917.3960376564564285 [Eh]

	 ================> DF-SCS-MP2 Energies <==================
	-----------------------------------------------------------
	 SCS Same-Spin Scale       =       0.3333333333333333 [-]
	 SCS Opposite-Spin Scale   =       1.2000000000000000 [-]
	 SCS Same-Spin Energy      =      -0.0958208420357863 [Eh]
	 SCS Opposite-Spin Energy  =      -1.1272534008271098 [Eh]
	 SCS Correlation Energy    =      -1.2230742428628960 [Eh]
	 SCS Total Energy          =   -1917.3922715391893234 [Eh]
	-----------------------------------------------------------

*** Psi4 exiting successfully. Buy a developer a beer!
