                               Psi4 1.3.2 release

  ==> Input File <==

--------------------------------------------------------------------------
molecule {
0 1
 Cl                 -1.5388435    -0.1931364     0.6760242
 Cl                  1.2369893     0.3960644    -0.1472336
  C                  0.0155402    -0.8508783     0.1416569
  H                  0.3883584    -1.5173747     0.9193488
  H                 -0.1425503    -1.3959932    -0.7887828
--
0 1
 Cl                 -3.8144883     3.2090796    -2.8006457
 Cl                 -0.8850613     2.8742199    -2.6428600
  C                 -2.4612556     2.0724914    -2.7050029
  H                 -2.5769254     1.4793039    -1.7983855
  H                 -2.4862189     1.4363836    -3.5896511
}
memory 15GB
set_num_threads(4)
psi4_io.set_default_path("/scratch/bdw2292/Psi4-CH2Cl2")
set maxiter 500
set freeze_core True
set PROPERTIES_ORIGIN ["COM"]
e_dim= energy('mp2/aug-cc-pV[TQ]Z',bsse_type='cp')

psi4.print_out('CP Energy = %10.6f' % (e_dim))
clean()
--------------------------------------------------------------------------

    Molecular point group: c1
  Charge       = 0
  Multiplicity = 1
  Basis Set: AUG-CC-PVTZ
    Blend: AUG-CC-PVTZ
  Basis Set: (AUG-CC-PVTZ AUX)
    Blend: AUG-CC-PVTZ-JKFIT
  @DF-RHF Final Energy:  -958.07889657732301
    Total Energy =                       -958.0788965773228938
  Basis Set: (AUG-CC-PVTZ AUX)
    Blend: AUG-CC-PVTZ-RI
	 Reference Energy          =    -958.0788965773230075 [Eh]
	 Singles Energy            =      -0.0000000000000000 [Eh]
	 Same-Spin Energy          =      -0.1372550641506939 [Eh]
	 Opposite-Spin Energy      =      -0.4286502503077173 [Eh]
	 Correlation Energy        =      -0.5659053144584111 [Eh]
	 Total Energy              =    -958.6448018917814125 [Eh]
	 SCS Total Energy          =    -958.6390285657424783 [Eh]
    Molecular point group: c1
  Basis Set: AUG-CC-PVQZ
    Blend: AUG-CC-PVQZ
  Basis Set: (AUG-CC-PVQZ AUX)
    Blend: AUG-CC-PVQZ-JKFIT
  @DF-RHF Final Energy:  -958.08860315308868
    Total Energy =                       -958.0886031530886839
  Basis Set: (AUG-CC-PVQZ AUX)
  @DF-RHF Final Energy:  -958.07893563000448
    Total Energy =                       -958.0789356300044801
  @DF-RHF Final Energy:  -958.08861671181717
    Total Energy =                       -958.0886167118171670
  @DF-RHF Final Energy:  -958.07893717226534
    Total Energy =                       -958.0789371722653414
  @DF-RHF Final Energy:  -958.08859560072165
    Total Energy =                       -958.0885956007216464
  @DF-RHF Final Energy:  -958.07887433656526
    Total Energy =                       -958.0788743365652635
  @DF-RHF Final Energy:  -958.08857991790080
    Total Energy =                       -958.0885799179008018
  Multiplicity = 1
  @DF-RHF Final Energy: -1916.15726221797763
    Total Energy =                      -1916.1572622179776317
	 Singles Energy            =      -0.0000000000000000 [Eh]
	 Same-Spin Energy          =      -0.2759449503568020 [Eh]
	 Opposite-Spin Energy      =      -0.8591204175643499 [Eh]
	 Correlation Energy        =      -1.1350653679211518 [Eh]
	 Total Energy              =   -1917.2923275858988745 [Eh]
	 SCS Total Energy          =   -1917.2801883691738567 [Eh]
    Molecular point group: c1

    Geometry (in Angstrom), charge = 0, multiplicity = 1:

       Center              X                  Y                   Z               Mass
    ------------   -----------------  -----------------  -----------------  -----------------
         CL          -0.293527166726    -1.589649124996     1.914335103249    34.968852682000
         CL           2.482305633274    -1.000448324996     1.091077303249    34.968852682000
         C            1.260856533274    -2.247391024996     1.379967803249    12.000000000000
         H            1.633674733274    -2.913887424996     2.157659703249     1.007825032230
         H            1.102766033274    -2.792505924996     0.449528103249     1.007825032230
         CL          -2.569171966726     1.812566875004    -1.562334796751    34.968852682000
         CL           0.360255033274     1.477707175004    -1.404549096751    34.968852682000
         C           -1.215939266726     0.675978675004    -1.466691996751    12.000000000000
         H           -1.331609066726     0.082791175004    -0.560074596751     1.007825032230
         H           -1.240902566726     0.039870875004    -2.351340196751     1.007825032230

  Charge       = 0
  Multiplicity = 1
  Basis Set: AUG-CC-PVQZ
    Blend: AUG-CC-PVQZ
  Basis Set: (AUG-CC-PVQZ AUX)
    Blend: AUG-CC-PVQZ-JKFIT

    Orbital Energies [Eh]
    ---------------------

    Doubly Occupied:

       1A   -104.856007     2A   -104.851001     3A   -104.843675
       4A   -104.842177     5A    -11.370514     6A    -11.359315
       7A    -10.581628     8A    -10.576548     9A    -10.569254
      10A    -10.567774    11A     -8.048696    12A     -8.046911
      13A     -8.046830    14A     -8.043618    15A     -8.041789
      16A     -8.041694    17A     -8.036327    18A     -8.034845
      19A     -8.034532    20A     -8.034439    21A     -8.033039
      22A     -8.032945    23A     -1.197147    24A     -1.186502
      25A     -1.102390    26A     -1.091750    27A     -0.899999
      28A     -0.889327    29A     -0.679143    30A     -0.668109
      31A     -0.621917    32A     -0.611412    33A     -0.591264
      34A     -0.580708    35A     -0.481245    36A     -0.476855
      37A     -0.468683    38A     -0.465172    39A     -0.454219
      40A     -0.451721    41A     -0.442113    42A     -0.439755

  @DF-RHF Final Energy: -1916.17660815014847

   => Energetics <=

    Nuclear Repulsion Energy =            457.6078955315160783
    One-Electron Energy =               -3558.1830264761415492
    Two-Electron Energy =                1184.3985227944770031
    Total Energy =                      -1916.1766081501484678

  Dipole Moment: [D]
     X:     0.3226      Y:    -3.5998      Z:    -0.0231     Total:     3.6143

  Basis Set: (AUG-CC-PVQZ AUX)
    Blend: AUG-CC-PVQZ-RI
	 Reference Energy          =   -1916.1766081501484678 [Eh]
	 Singles Energy            =      -0.0000000000000000 [Eh]
	 Same-Spin Energy          =      -0.2846735139823992 [Eh]
	 Opposite-Spin Energy      =      -0.9361581146562883 [Eh]
	 Correlation Energy        =      -1.2208316286386875 [Eh]
	 Total Energy              =   -1917.3974397787872022 [Eh]

	 ================> DF-SCS-MP2 Energies <==================
	-----------------------------------------------------------
	 SCS Same-Spin Scale       =       0.3333333333333333 [-]
	 SCS Opposite-Spin Scale   =       1.2000000000000000 [-]
	 SCS Same-Spin Energy      =      -0.0948911713274664 [Eh]
	 SCS Opposite-Spin Energy  =      -1.1233897375875459 [Eh]
	 SCS Correlation Energy    =      -1.2182809089150124 [Eh]
	 SCS Total Energy          =   -1917.3948890590634164 [Eh]
	-----------------------------------------------------------

*** Psi4 exiting successfully. Buy a developer a beer!
