                               Psi4 1.3.2 release

  ==> Input File <==

--------------------------------------------------------------------------
molecule {
0 1
 Cl                 -0.8869533     0.6775213    -0.2883658
 Cl                  1.9056014    -0.2292421     0.0374276
  C                  0.1983835    -0.6935655    -0.0102364
  H                 -0.0561714    -1.1445283     0.9490648
  H                  0.0635140    -1.4078627    -0.8227287
--
0 1
  O                 -3.5798441    -0.2270233     0.1270550
  H                 -3.5520058    -1.1443194     0.3975394
  H                 -2.6817162     0.0774484    -0.0097714
}
memory 15GB
set_num_threads(4)
psi4_io.set_default_path("/scratch/bdw2292/Psi4-CH2Cl2")
set maxiter 500
set freeze_core True
set PROPERTIES_ORIGIN ["COM"]
e_dim= energy('mp2/aug-cc-pV[TQ]Z',bsse_type='cp')

psi4.print_out('CP Energy = %10.6f' % (e_dim))
clean()
--------------------------------------------------------------------------

    Molecular point group: c1
  Charge       = 0
  Multiplicity = 1
  Basis Set: AUG-CC-PVTZ
    Blend: AUG-CC-PVTZ
  Basis Set: (AUG-CC-PVTZ AUX)
    Blend: AUG-CC-PVTZ-JKFIT
  @DF-RHF Final Energy:   -76.06042415487042
    Total Energy =                        -76.0604241548704181
  Basis Set: (AUG-CC-PVTZ AUX)
    Blend: AUG-CC-PVTZ-RI
	 Reference Energy          =     -76.0604241548704181 [Eh]
	 Singles Energy            =      -0.0000000000000000 [Eh]
	 Same-Spin Energy          =      -0.0650916008224498 [Eh]
	 Opposite-Spin Energy      =      -0.2029660291819398 [Eh]
	 Correlation Energy        =      -0.2680576300043895 [Eh]
	 Total Energy              =     -76.3284817848748105 [Eh]
	 SCS Total Energy          =     -76.3256805901628894 [Eh]
    Molecular point group: c1
  Basis Set: AUG-CC-PVQZ
    Blend: AUG-CC-PVQZ
  Basis Set: (AUG-CC-PVQZ AUX)
    Blend: AUG-CC-PVQZ-JKFIT
  @DF-RHF Final Energy:   -76.06581169244650
    Total Energy =                        -76.0658116924465162
  Basis Set: (AUG-CC-PVQZ AUX)
  @DF-RHF Final Energy:   -76.06049149809860
    Total Energy =                        -76.0604914980985995
  @DF-RHF Final Energy:   -76.06583417073907
    Total Energy =                        -76.0658341707390662
  @DF-RHF Final Energy:  -958.07896283518096
    Total Energy =                       -958.0789628351808460
  @DF-RHF Final Energy:  -958.08859724259980
    Total Energy =                       -958.0885972425998034
  @DF-RHF Final Energy:  -958.07887011642754
    Total Energy =                       -958.0788701164274244
  @DF-RHF Final Energy:  -958.08857278642256
    Total Energy =                       -958.0885727864225601
  Multiplicity = 1
  @DF-RHF Final Energy: -1034.12550392651383
    Total Energy =                      -1034.1255039265138294
	 Singles Energy            =      -0.0000000000000000 [Eh]
	 Same-Spin Energy          =      -0.2059645654530235 [Eh]
	 Opposite-Spin Energy      =      -0.6359305992007851 [Eh]
	 Correlation Energy        =      -0.8418951646538086 [Eh]
	 Total Energy              =   -1034.9673990911676356 [Eh]
	 SCS Total Energy          =   -1034.9572755007056912 [Eh]
    Molecular point group: c1

    Geometry (in Angstrom), charge = 0, multiplicity = 1:

       Center              X                  Y                   Z               Mass
    ------------   -----------------  -----------------  -----------------  -----------------
         CL          -0.636542719684     0.676793374248    -0.226113418148    34.968852682000
         CL           2.156011980316    -0.229970025752     0.099679981852    34.968852682000
         C            0.448794080316    -0.694293425752     0.052015981852    12.000000000000
         H            0.194239180316    -1.145256225752     1.011317181852     1.007825032230
         H            0.313924580316    -1.408590625752    -0.760476318148     1.007825032230
         O           -3.329433519684    -0.227751225752     0.189307381852    15.994914619570
         H           -3.301595219684    -1.145047325752     0.459791781852     1.007825032230
         H           -2.431305619684     0.076720474248     0.052480981852     1.007825032230

  Charge       = 0
  Multiplicity = 1
  Basis Set: AUG-CC-PVQZ
    Blend: AUG-CC-PVQZ
  Basis Set: (AUG-CC-PVQZ AUX)
    Blend: AUG-CC-PVQZ-JKFIT

    Orbital Energies [Eh]
    ---------------------

    Doubly Occupied:

       1A   -104.868042     2A   -104.861633     3A    -20.538113
       4A    -11.381540     5A    -10.595012     6A    -10.587044
       7A     -8.061947     8A     -8.060369     9A     -8.060076
      10A     -8.054119    11A     -8.052273    12A     -8.052177
      13A     -1.333835    14A     -1.210264    15A     -1.116939
      16A     -0.912916    17A     -0.722068    18A     -0.689598
      19A     -0.631946    20A     -0.603224    21A     -0.565845
      22A     -0.498843    23A     -0.485131    24A     -0.484308
      25A     -0.462841    26A     -0.461210

  @DF-RHF Final Energy: -1034.14051850183296

   => Energetics <=

    Nuclear Repulsion Energy =            203.9500355637302107
    One-Electron Energy =               -1833.4784687877756824
    Two-Electron Energy =                 595.3879147222125994
    Total Energy =                      -1034.1405185018329576

  Dipole Moment: [D]
     X:     1.8501      Y:    -2.5678      Z:     0.3468     Total:     3.1838

  Basis Set: (AUG-CC-PVQZ AUX)
    Blend: AUG-CC-PVQZ-RI
	 Reference Energy          =   -1034.1405185018329576 [Eh]
	 Singles Energy            =      -0.0000000000000000 [Eh]
	 Same-Spin Energy          =      -0.2124272585270872 [Eh]
	 Opposite-Spin Energy      =      -0.6899594705287674 [Eh]
	 Correlation Energy        =      -0.9023867290558545 [Eh]
	 Total Energy              =   -1035.0429052308888913 [Eh]

	 ================> DF-SCS-MP2 Energies <==================
	-----------------------------------------------------------
	 SCS Same-Spin Scale       =       0.3333333333333333 [-]
	 SCS Opposite-Spin Scale   =       1.2000000000000000 [-]
	 SCS Same-Spin Energy      =      -0.0708090861756957 [Eh]
	 SCS Opposite-Spin Energy  =      -0.8279513646345208 [Eh]
	 SCS Correlation Energy    =      -0.8987604508102165 [Eh]
	 SCS Total Energy          =   -1035.0392789526431443 [Eh]
	-----------------------------------------------------------

*** Psi4 exiting successfully. Buy a developer a beer!
