                               Psi4 1.3.2 release

  ==> Input File <==

--------------------------------------------------------------------------
molecule {
0 1
 Cl                 -1.6165076    -0.1445430    -0.0459072
 Cl                  1.2931214     0.2390112    -0.0222988
  C                 -0.0333139    -0.9299819     0.0416379
  H                  0.0307675    -1.4731636     0.9845730
  H                  0.0628634    -1.6089770    -0.8056818
--
0 1
  O                 -0.5569628     3.6066350    -0.0242443
  H                 -0.6444360     2.6798220     0.2019034
  H                 -0.0054716     3.6676087    -0.8037875
}
memory 15GB
set_num_threads(4)
psi4_io.set_default_path("/scratch/bdw2292/Psi4-CH2Cl2")
set maxiter 500
set freeze_core True
set PROPERTIES_ORIGIN ["COM"]
e_dim= energy('mp2/aug-cc-pV[TQ]Z',bsse_type='cp')

psi4.print_out('CP Energy = %10.6f' % (e_dim))
clean()
--------------------------------------------------------------------------

    Molecular point group: c1
  Charge       = 0
  Multiplicity = 1
  Basis Set: AUG-CC-PVTZ
    Blend: AUG-CC-PVTZ
  Basis Set: (AUG-CC-PVTZ AUX)
    Blend: AUG-CC-PVTZ-JKFIT
  @DF-RHF Final Energy:   -76.06051174089161
    Total Energy =                        -76.0605117408916129
  Basis Set: (AUG-CC-PVTZ AUX)
    Blend: AUG-CC-PVTZ-RI
	 Reference Energy          =     -76.0605117408916129 [Eh]
	 Singles Energy            =      -0.0000000000000000 [Eh]
	 Same-Spin Energy          =      -0.0650989654453116 [Eh]
	 Opposite-Spin Energy      =      -0.2029943184550024 [Eh]
	 Correlation Energy        =      -0.2680932839003141 [Eh]
	 Total Energy              =     -76.3286050247919263 [Eh]
	 SCS Total Energy          =     -76.3258045781860517 [Eh]
    Molecular point group: c1
  Basis Set: AUG-CC-PVQZ
    Blend: AUG-CC-PVQZ
  Basis Set: (AUG-CC-PVQZ AUX)
    Blend: AUG-CC-PVQZ-JKFIT
  @DF-RHF Final Energy:   -76.06590011662169
    Total Energy =                        -76.0659001166216910
  Basis Set: (AUG-CC-PVQZ AUX)
  @DF-RHF Final Energy:   -76.06054457819143
    Total Energy =                        -76.0605445781914398
  @DF-RHF Final Energy:   -76.06591354871182
    Total Energy =                        -76.0659135487118192
  @DF-RHF Final Energy:  -958.07894719987462
    Total Energy =                       -958.0789471998746194
  @DF-RHF Final Energy:  -958.08860888964659
    Total Energy =                       -958.0886088896465935
  @DF-RHF Final Energy:  -958.07888784201555
    Total Energy =                       -958.0788878420155470
  @DF-RHF Final Energy:  -958.08859704388351
    Total Energy =                       -958.0885970438835102
  Multiplicity = 1
  @DF-RHF Final Energy: -1034.14056303503617
    Total Energy =                      -1034.1405630350363936
	 Singles Energy            =      -0.0000000000000000 [Eh]
	 Same-Spin Energy          =      -0.2033519296376624 [Eh]
	 Opposite-Spin Energy      =      -0.6328790346418005 [Eh]
	 Correlation Energy        =      -0.8362309642794629 [Eh]
	 Total Energy              =   -1034.9767939993155323 [Eh]
	 SCS Total Energy          =   -1034.9678018531521957 [Eh]
    Molecular point group: c1

    Geometry (in Angstrom), charge = 0, multiplicity = 1:

       Center              X                  Y                   Z               Mass
    ------------   -----------------  -----------------  -----------------  -----------------
         CL          -1.408812435091    -0.665534363411    -0.019431961458    34.968852682000
         CL           1.500816564909    -0.281980163411     0.004176438542    34.968852682000
         C            0.174381264909    -1.450973263411     0.068113138542    12.000000000000
         H            0.238462664909    -1.994154963411     1.011048238542     1.007825032230
         H            0.270558564909    -2.129968363411    -0.779206561458     1.007825032230
         O           -0.349267635091     3.085643636589     0.002230938542    15.994914619570
         H           -0.436740835091     2.158830636589     0.228378638542     1.007825032230
         H            0.202223564909     3.146617336589    -0.777312261458     1.007825032230

  Charge       = 0
  Multiplicity = 1
  Basis Set: AUG-CC-PVQZ
    Blend: AUG-CC-PVQZ
  Basis Set: (AUG-CC-PVQZ AUX)
    Blend: AUG-CC-PVQZ-JKFIT

    Orbital Energies [Eh]
    ---------------------

    Doubly Occupied:

       1A   -104.859258     2A   -104.858991     3A    -20.548679
       4A    -11.374967     5A    -10.584890     6A    -10.584649
       7A     -8.051952     8A     -8.051713     9A     -8.050158
      10A     -8.050054    11A     -8.049919    12A     -8.049817
      13A     -1.336457    14A     -1.203471    15A     -1.107497
      16A     -0.905075    17A     -0.710497    18A     -0.683595
      19A     -0.628206    20A     -0.596104    21A     -0.566048
      22A     -0.495913    23A     -0.484783    24A     -0.483152
      25A     -0.459214    26A     -0.456747

  @DF-RHF Final Energy: -1034.15561077109919

   => Energetics <=

    Nuclear Repulsion Energy =            200.4809141554486871
    One-Electron Energy =               -1826.8094294874122170
    Two-Electron Energy =                 592.1729045608642537
    Total Energy =                      -1034.1556107710991910

  Dipole Moment: [D]
     X:     1.0418      Y:    -3.6061      Z:    -0.7822     Total:     3.8342

  Basis Set: (AUG-CC-PVQZ AUX)
    Blend: AUG-CC-PVQZ-RI
	 Reference Energy          =   -1034.1556107710991910 [Eh]
	 Singles Energy            =      -0.0000000000000000 [Eh]
	 Same-Spin Energy          =      -0.2097869873875841 [Eh]
	 Opposite-Spin Energy      =      -0.6868723377920667 [Eh]
	 Correlation Energy        =      -0.8966593251796507 [Eh]
	 Total Energy              =   -1035.0522700962787894 [Eh]

	 ================> DF-SCS-MP2 Energies <==================
	-----------------------------------------------------------
	 SCS Same-Spin Scale       =       0.3333333333333333 [-]
	 SCS Opposite-Spin Scale   =       1.2000000000000000 [-]
	 SCS Same-Spin Energy      =      -0.0699289957958613 [Eh]
	 SCS Opposite-Spin Energy  =      -0.8242468053504800 [Eh]
	 SCS Correlation Energy    =      -0.8941758011463413 [Eh]
	 SCS Total Energy          =   -1035.0497865722454662 [Eh]
	-----------------------------------------------------------

*** Psi4 exiting successfully. Buy a developer a beer!
