                               Psi4 1.3.2 release

  ==> Input File <==

--------------------------------------------------------------------------
molecule {
0 1
 Cl                 -1.6165076    -0.1445430    -0.0459072
 Cl                  1.2931214     0.2390112    -0.0222988
  C                 -0.0333139    -0.9299819     0.0416379
  H                  0.0307675    -1.4731636     0.9845730
  H                  0.0628634    -1.6089770    -0.8056818
--
0 1
  O                 -0.8220732     2.8363536    -0.0918290
  H                 -0.9095464     1.9095406     0.1343187
  H                 -0.2705820     2.8973274    -0.8713722
}
memory 15GB
set_num_threads(4)
psi4_io.set_default_path("/scratch/bdw2292/Psi4-CH2Cl2")
set maxiter 500
set freeze_core True
set PROPERTIES_ORIGIN ["COM"]
e_dim= energy('mp2/aug-cc-pV[TQ]Z',bsse_type='cp')

psi4.print_out('CP Energy = %10.6f' % (e_dim))
clean()
--------------------------------------------------------------------------

    Molecular point group: c1
  Charge       = 0
  Multiplicity = 1
  Basis Set: AUG-CC-PVTZ
    Blend: AUG-CC-PVTZ
  Basis Set: (AUG-CC-PVTZ AUX)
    Blend: AUG-CC-PVTZ-JKFIT
  @DF-RHF Final Energy:   -76.06051174001561
    Total Energy =                        -76.0605117400156132
  Basis Set: (AUG-CC-PVTZ AUX)
    Blend: AUG-CC-PVTZ-RI
	 Reference Energy          =     -76.0605117400156132 [Eh]
	 Singles Energy            =      -0.0000000000000000 [Eh]
	 Same-Spin Energy          =      -0.0650989654291042 [Eh]
	 Opposite-Spin Energy      =      -0.2029943183787677 [Eh]
	 Correlation Energy        =      -0.2680932838078719 [Eh]
	 Total Energy              =     -76.3286050238234850 [Eh]
	 SCS Total Energy          =     -76.3258045772131624 [Eh]
    Molecular point group: c1
  Basis Set: AUG-CC-PVQZ
    Blend: AUG-CC-PVQZ
  Basis Set: (AUG-CC-PVQZ AUX)
    Blend: AUG-CC-PVQZ-JKFIT
  @DF-RHF Final Energy:   -76.06590011571228
    Total Energy =                        -76.0659001157122816
  Basis Set: (AUG-CC-PVQZ AUX)
  @DF-RHF Final Energy:   -76.06057486759492
    Total Energy =                        -76.0605748675949229
  @DF-RHF Final Energy:   -76.06592466406823
    Total Energy =                        -76.0659246640682341
  @DF-RHF Final Energy:  -958.07898642078897
    Total Energy =                       -958.0789864207888513
  @DF-RHF Final Energy:  -958.08861834483571
    Total Energy =                       -958.0886183448358224
  @DF-RHF Final Energy:  -958.07888784210411
    Total Energy =                       -958.0788878421041090
  @DF-RHF Final Energy:  -958.08859704417910
    Total Energy =                       -958.0885970441790960
  Multiplicity = 1
  @DF-RHF Final Energy: -1034.13286656050832
    Total Energy =                      -1034.1328665605083188
	 Singles Energy            =      -0.0000000000000000 [Eh]
	 Same-Spin Energy          =      -0.2055897546550947 [Eh]
	 Opposite-Spin Energy      =      -0.6355357321529458 [Eh]
	 Correlation Energy        =      -0.8411254868080406 [Eh]
	 Total Energy              =   -1034.9739920473164148 [Eh]
	 SCS Total Energy          =   -1034.9640393573101846 [Eh]
    Molecular point group: c1

    Geometry (in Angstrom), charge = 0, multiplicity = 1:

       Center              X                  Y                   Z               Mass
    ------------   -----------------  -----------------  -----------------  -----------------
         CL          -1.361984223677    -0.529474442770    -0.007494026847    34.968852682000
         CL           1.547644776323    -0.145920242770     0.016114373153    34.968852682000
         C            0.221209476323    -1.314913342770     0.080051073153    12.000000000000
         H            0.285290876323    -1.858095042770     1.022986173153     1.007825032230
         H            0.317386776323    -1.993908442770    -0.767268626847     1.007825032230
         O           -0.567549823677     2.451422157230    -0.053415826847    15.994914619570
         H           -0.655023023677     1.524609157230     0.172731873153     1.007825032230
         H           -0.016058623677     2.512395957230    -0.832959026847     1.007825032230

  Charge       = 0
  Multiplicity = 1
  Basis Set: AUG-CC-PVQZ
    Blend: AUG-CC-PVQZ
  Basis Set: (AUG-CC-PVQZ AUX)
    Blend: AUG-CC-PVQZ-JKFIT

    Orbital Energies [Eh]
    ---------------------

    Doubly Occupied:

       1A   -104.864400     2A   -104.859856     3A    -20.535425
       4A    -11.378148     5A    -10.590646     6A    -10.585616
       7A     -8.057638     8A     -8.055942     9A     -8.055754
      10A     -8.052669    11A     -8.050863    12A     -8.050749
      13A     -1.327494    14A     -1.208150    15A     -1.112294
      16A     -0.909305    17A     -0.705945    18A     -0.686747
      19A     -0.632760    20A     -0.600004    21A     -0.562446
      22A     -0.489468    23A     -0.488327    24A     -0.480062
      25A     -0.462233    26A     -0.459035

  @DF-RHF Final Energy: -1034.14787512125486

   => Energetics <=

    Nuclear Repulsion Energy =            212.1769472745330631
    One-Electron Energy =               -1850.1256853414552097
    Two-Electron Energy =                 603.8008629456670633
    Total Energy =                      -1034.1478751212548559

  Dipole Moment: [D]
     X:     1.0568      Y:    -3.7855      Z:    -0.7586     Total:     4.0028

  Basis Set: (AUG-CC-PVQZ AUX)
    Blend: AUG-CC-PVQZ-RI
	 Reference Energy          =   -1034.1478751212548559 [Eh]
	 Singles Energy            =      -0.0000000000000000 [Eh]
	 Same-Spin Energy          =      -0.2120614462637739 [Eh]
	 Opposite-Spin Energy      =      -0.6895133002487531 [Eh]
	 Correlation Energy        =      -0.9015747465125270 [Eh]
	 Total Energy              =   -1035.0494498677674073 [Eh]

	 ================> DF-SCS-MP2 Energies <==================
	-----------------------------------------------------------
	 SCS Same-Spin Scale       =       0.3333333333333333 [-]
	 SCS Opposite-Spin Scale   =       1.2000000000000000 [-]
	 SCS Same-Spin Energy      =      -0.0706871487545913 [Eh]
	 SCS Opposite-Spin Energy  =      -0.8274159602985037 [Eh]
	 SCS Correlation Energy    =      -0.8981031090530951 [Eh]
	 SCS Total Energy          =   -1035.0459782303080374 [Eh]
	-----------------------------------------------------------

*** Psi4 exiting successfully. Buy a developer a beer!
