                               Psi4 1.5 release

  ==> Input File <==

--------------------------------------------------------------------------
molecule {
0 1
C          8.00570       -1.03030       -1.50710
N          6.77980       -0.97640       -0.69930
C          5.63270       -0.41540       -1.45740
C          4.27360       -0.72380       -0.77230
C          7.01080       -0.26460        0.57220
H          5.59360       -0.89410       -2.44300
H          5.76130        0.66570       -1.57720
N          3.14360       -0.07970       -1.31840
O          4.24840       -1.46710        0.21310
C          9.15700       -1.71990       -0.74280
H          7.82460       -1.60220       -2.42480
H          8.31500       -0.02010       -1.80480
C          8.11580       -0.94680        1.40170
H          7.29200        0.77860        0.37700
H          6.10830       -0.24010        1.19050
H          8.92120       -2.76820       -0.52650
H         10.08890       -1.66060       -1.31430
H          8.33920       -0.36400        2.30110
H          7.83900       -1.97000        1.68030
H          3.24120        0.50020       -2.10800
H          2.25740       -0.21010       -0.90990
H          9.28100       -1.20340        0.18600
H          8.99070       -0.99420        0.78750
}
memory 49GB
set_num_threads(12)
psi4_io.set_default_path("/scratch/bdw2292/Psi4-farH_in17")
set maxiter 500
set freeze_core True
set PROPERTIES_ORIGIN ["COM"]
set cubeprop_tasks ['esp']
set basis MINIX
E, wfn = properties('hf',properties=['dipole'],return_wfn=True)
cubeprop(wfn)
fchk(wfn, "farH_in17-esp_frag.fchk")
oeprop(wfn,"WIBERG_LOWDIN_INDICES","MULLIKEN_CHARGES")
clean()
--------------------------------------------------------------------------

    Molecular point group: c1

    Geometry (in Angstrom), charge = 0, multiplicity = 1:

       Center              X                  Y                   Z               Mass
    ------------   -----------------  -----------------  -----------------  -----------------
         C            1.750308247904    -0.188516255490    -1.034029271170    12.000000000000
         N            0.524408247904    -0.134616255490    -0.226229271170    14.003074004430
         C           -0.622691752096     0.426383744510    -0.984329271170    12.000000000000
         C           -1.981791752096     0.117983744510    -0.299229271170    12.000000000000
         C            0.755408247904     0.577183744510     1.045270728830    12.000000000000
         H           -0.661791752096    -0.052316255490    -1.969929271170     1.007825032230
         H           -0.494091752096     1.507483744510    -1.104129271170     1.007825032230
         N           -3.111791752096     0.762083744510    -0.845329271170    14.003074004430
         O           -2.006991752096    -0.625316255490     0.686170728830    15.994914619570
         C            2.901608247904    -0.878116255490    -0.269729271170    12.000000000000
         H            1.569208247904    -0.760416255490    -1.951729271170     1.007825032230
         H            2.059608247904     0.821683744510    -1.331729271170     1.007825032230
         C            1.860408247904    -0.105016255490     1.874770728830    12.000000000000
         H            1.036608247904     1.620383744510     0.850070728830     1.007825032230
         H           -0.147091752096     0.601683744510     1.663570728830     1.007825032230
         H            2.665808247904    -1.926416255490    -0.053429271170     1.007825032230
         H            3.833508247904    -0.818816255490    -0.841229271170     1.007825032230
         H            2.083808247904     0.477783744510     2.774170728830     1.007825032230
         H            1.583608247904    -1.128216255490     2.153370728830     1.007825032230
         H           -3.014191752096     1.341983744510    -1.634929271170     1.007825032230
         H           -3.997991752096     0.631683744510    -0.436829271170     1.007825032230
         H            3.025608247904    -0.361616255490     0.659070728830     1.007825032230
         H            2.735308247904    -0.152416255490     1.260570728830     1.007825032230

  Charge       = 0
  Multiplicity = 1
  Basis Set: MINIX
    Blend: MINIX
  Basis Set: (MINIX AUX)
    Blend: DEF2-UNIVERSAL-JKFIT

    Orbital Energies [Eh]
    ---------------------

    Doubly Occupied:

       1A    -20.289068     2A    -15.413641     3A    -15.371474
       4A    -11.314636     5A    -11.203770     6A    -11.182456
       7A    -11.173414     8A    -11.115866     9A    -11.111634
      10A     -1.360706    11A     -1.216901    12A     -1.177757
      13A     -1.055331    14A     -1.003550    15A     -0.955780
      16A     -0.830261    17A     -0.816865    18A     -0.762969
      19A     -0.705636    20A     -0.703294    21A     -0.649727
      22A     -0.638616    23A     -0.614760    24A     -0.593091
      25A     -0.587881    26A     -0.544250    27A     -0.535149
      28A     -0.526540    29A     -0.513578    30A     -0.491111
      31A     -0.482107    32A     -0.469476    33A     -0.388635
      34A     -0.381831    35A     -0.366491    36A     -0.332514

  @DF-RHF Final Energy:  -416.06375048924104

   => Energetics <=

    Nuclear Repulsion Energy =            486.3157425182025122
    One-Electron Energy =               -1530.9974381943050048
    Two-Electron Energy =                 628.6179451868613342
    Total Energy =                       -416.0637504892411016

  Dipole Moment: [D]
     X:    -0.0261      Y:     3.0215      Z:    -2.7573     Total:     4.0906

  Basis Set: MINIX
    Blend: MINIX

  Mulliken Charges: (a.u.)
   Center  Symbol    Alpha    Beta     Spin     Total
       1     C     3.06918  3.06918  0.00000 -0.13836
       2     N     3.65361  3.65361  0.00000 -0.30722
       3     C     3.07568  3.07568  0.00000 -0.15136
       4     C     2.80449  2.80449  0.00000  0.39102
       5     C     3.07039  3.07039  0.00000 -0.14078
       6     H     0.42908  0.42908  0.00000  0.14184
       7     H     0.43875  0.43875  0.00000  0.12249
       8     N     3.76638  3.76638  0.00000 -0.53276
       9     O     4.20690  4.20690  0.00000 -0.41381
      10     C     3.16623  3.16623  0.00000 -0.33247
      11     H     0.43733  0.43733  0.00000  0.12534
      12     H     0.44753  0.44753  0.00000  0.10493
      13     C     3.16561  3.16561  0.00000 -0.33122
      14     H     0.44983  0.44983  0.00000  0.10034
      15     H     0.42810  0.42810  0.00000  0.14380
      16     H     0.43631  0.43631  0.00000  0.12738
      17     H     0.44313  0.44313  0.00000  0.11373
      18     H     0.44310  0.44310  0.00000  0.11380
      19     H     0.43494  0.43494  0.00000  0.13012
      20     H     0.37558  0.37558  0.00000  0.24884
      21     H     0.36841  0.36841  0.00000  0.26318
      22     H     0.44340  0.44340  0.00000  0.11321
      23     H     0.44602  0.44602  0.00000  0.10795

   Total alpha = 36.00000, Total beta = 36.00000, Total charge =  0.00000

*** Psi4 exiting successfully. Buy a developer a beer!
