                               Psi4 1.5 release

  ==> Input File <==

--------------------------------------------------------------------------
molecule {
0 1
 C    1.627753   -0.709450   -1.149090
 N    0.907208    0.369183   -0.599113
 C   -0.403278    0.134393   -0.065094
 C   -0.583523   -0.049057    1.328139
 C    1.416332    1.757792   -0.573486
 C   -1.535926    0.134741   -0.916405
 C   -1.872204   -0.240803    1.846722
 C   -2.989473   -0.247873    1.000098
 C   -2.815851   -0.059053   -0.377906
 H    0.276488   -0.043467    2.001118
 H   -1.415337    0.281570   -1.991461
 C    3.064508   -0.438764   -1.604037
 O    1.143928   -1.836032   -1.233304
 H    1.704912    2.080821   -1.574525
 H    0.650335    2.446237   -0.212195
 H    2.277649    1.835705    0.091387
 H   -2.001267   -0.380482    2.921507
 H   -3.682019   -0.056898   -1.042069
 H    3.083536    0.250344   -2.448397
 H    3.668204   -0.035928   -0.790477
 H   -3.989744   -0.397894    1.411514
 H    3.524450   -1.373788   -1.926659
}
set optking {
  frozen_dihedral = ("
    1 2 3 4
    12 1 2 3
  ")
}
set {
  geom_maxiter 400
  g_convergence GAU_LOOSE
  dynamic_level 1
}
memory 8.166666666666666GB
set_num_threads(2)
psi4_io.set_default_path("/scratch/bdw2292/Psi4-3_24_Index_0-farH_in17")
for _ in range(1):
  try:
    set opt_coordinates both
    optimize('wb97x-d/6-311G')
    break
  except OptimizationConvergenceError:
    break
  else:
    try:
      set opt_coordinates cartesian
      optimize('wb97x-d/6-311G')
      break
    except OptimizationConvergenceError:
      pass
clean()
--------------------------------------------------------------------------

    Molecular point group: c1
  Charge       = 0
  Multiplicity = 1
  Basis Set: 6-311G
    Blend: 6-311G
  Basis Set: (6-311G AUX)
    Blend: CC-PVTZ-JKFIT
  @DF-RKS Final Energy:  -479.37625032332494
    Total Energy =                       -479.3762503233249390
    Molecular point group: c1
  Basis Set: 6-311G
    Blend: 6-311G
  Basis Set: (6-311G AUX)
    Blend: CC-PVTZ-JKFIT
  Basis Set: 6-311G
    Blend: 6-311G
  Basis Set: (6-311G AUX)
    Blend: CC-PVTZ-JKFIT
  @DF-RKS Final Energy:  -479.37994358173466
    Total Energy =                       -479.3799435817346648
  Basis Set: 6-311G
    Blend: 6-311G
  Basis Set: (6-311G AUX)
    Blend: CC-PVTZ-JKFIT
  Basis Set: 6-311G
    Blend: 6-311G
  @DF-RKS Final Energy:  -479.38032019873469
    Total Energy =                       -479.3803201987346938
  @DF-RKS Final Energy:  -479.38034231990963
    Total Energy =                       -479.3803423199096301
  @DF-RKS Final Energy:  -479.38042156345847
    Total Energy =                       -479.3804215634584693
  @DF-RKS Final Energy:  -479.38050303433880
    Total Energy =                       -479.3805030343388580
  @DF-RKS Final Energy:  -479.38050034867371
    Total Energy =                       -479.3805003486737064
  @DF-RKS Final Energy:  -479.38050302475813
    Total Energy =                       -479.3805030247581840
  Basis Set: (6-311G AUX)
    Blend: CC-PVTZ-JKFIT
  Basis Set: 6-311G
    Blend: 6-311G
  Basis Set: (6-311G AUX)
    Blend: CC-PVTZ-JKFIT
  @DF-RKS Final Energy:  -479.38051371953259
    Total Energy =                       -479.3805137195326438
  Basis Set: 6-311G
    Blend: 6-311G
  Basis Set: (6-311G AUX)
    Blend: CC-PVTZ-JKFIT
  Charge       = 0
  Multiplicity = 1
  Basis Set: 6-311G
    Blend: 6-311G
  Basis Set: (6-311G AUX)
    Blend: CC-PVTZ-JKFIT

    Orbital Energies [Eh]
    ---------------------

    Doubly Occupied:

       1A    -19.202840     2A    -14.469891     3A    -10.395920
       4A    -10.335041     5A    -10.328969     6A    -10.296994
       7A    -10.296434     8A    -10.295849     9A    -10.295186
      10A    -10.294691    11A    -10.289678    12A     -1.144255
      13A     -1.049049    14A     -0.965591    15A     -0.870727
      16A     -0.858846    17A     -0.839631    18A     -0.810159
      19A     -0.722277    20A     -0.714659    21A     -0.657532
      22A     -0.609430    23A     -0.584929    24A     -0.577209
      25A     -0.569261    26A     -0.542240    27A     -0.538427
      28A     -0.519486    29A     -0.513699    30A     -0.499497
      31A     -0.493428    32A     -0.476322    33A     -0.460329
      34A     -0.448486    35A     -0.445205    36A     -0.433005
      37A     -0.340070    38A     -0.336605    39A     -0.326028
      40A     -0.319249

  @DF-RKS Final Energy:  -479.38051616687306

   => Energetics <=

    Nuclear Repulsion Energy =            588.2688201626589262
    One-Electron Energy =               -1815.0049552549030523
    Two-Electron Energy =                 794.4502945796288031
    DFT Exchange-Correlation Energy =     -47.0818123926085121
    Empirical Dispersion Energy =          -0.0128632616491161
    VV10 Nonlocal Energy =                  0.0000000000000000
    Total Energy =                       -479.3805161668730648

  Dipole Moment: [D]
     X:     0.7194      Y:     4.0518      Z:     0.6239     Total:     4.1622

    Molecular point group: c1
  Basis Set: 6-311G
    Blend: 6-311G
  Basis Set: (6-311G AUX)
    Blend: CC-PVTZ-JKFIT

  -Total Gradient:
     Atom            X                  Y                   Z
    ------   -----------------  -----------------  -----------------
       1        0.000387969174    -0.000117057627     0.000789931329
       2       -0.000873156664    -0.000212658278    -0.001408761142
       3        0.000245319096     0.000833479835     0.000742490245
       4        0.000089594612    -0.000733728434    -0.000104742880
       5        0.000016578808     0.000059342019    -0.000122907804
       6        0.000047794892     0.000020712812     0.000045387913
       7        0.000035054574     0.000032726455    -0.000091680900
       8       -0.000004866285     0.000000494248    -0.000071162783
       9        0.000057209333    -0.000013692871     0.000056444316
      10       -0.000026073680     0.000011105124    -0.000010072086
      11        0.000011366965    -0.000017182336     0.000007344788
      12        0.000272944687     0.000022774542     0.000492544406
      13       -0.000081946510     0.000107223229    -0.000227210434
      14       -0.000034163042    -0.000030363757    -0.000015115056
      15        0.000003853443    -0.000011392109    -0.000009006037
      16        0.000031802499     0.000025298792     0.000066471060
      17       -0.000019418134     0.000008330851    -0.000010266518
      18        0.000010567858    -0.000024305627    -0.000027989121
      19       -0.000056841929    -0.000059709585     0.000079606598
      20        0.000076133586    -0.000057639013    -0.000079911477
      21        0.000005230853    -0.000017600415    -0.000042005151
      22       -0.000013464041     0.000025429238    -0.000069092259

  **** Optimization is complete! (in 3 steps) ****
    Final optimized geometry and variables:
    Molecular point group: c1

    Geometry (in Angstrom), charge = 0, multiplicity = 1:

    C            1.639671365221    -0.568975969297    -0.994664235401
    N            0.948196448061     0.492742169250    -0.453530440128
    C           -0.316248644804     0.250101574329     0.187335167428
    C           -0.376482377853     0.130150309536     1.573772222901
    C            1.511324137151     1.841072947276    -0.355185592600
    C           -1.477120212353     0.150600033003    -0.575084438307
    C           -1.603375631996    -0.073126334193     2.200634992725
    C           -2.767358733127    -0.168672381824     1.440554097889
    C           -2.701686795729    -0.061134587472     0.052342176724
    H            0.536242254886     0.186722341056     2.151375296392
    H           -1.409107075767     0.224423472511    -1.650980331567
    C            3.009935696676    -0.273051972129    -1.553708778543
    O            1.157193422311    -1.713438292772    -1.026742227504
    H            1.949901524662     2.152794948923    -1.302506124416
    H            0.706857434369     2.531584695310    -0.114644579930
    H            2.274308723104     1.915544126463     0.425372296056
    H           -1.648286522539    -0.166491926916     3.277030399319
    H           -3.601668311525    -0.146145760130    -0.541121807136
    H            2.950746386556     0.386491335467    -2.421912607617
    H            3.659460117739     0.201753880410    -0.816741889915
    H           -3.719361801756    -0.332992164330     1.926387775090
    H            3.449836077040    -1.215753738491    -1.863444636350

*** Psi4 exiting successfully. Buy a developer a beer!
