                               Psi4 1.5 release

  ==> Input File <==

--------------------------------------------------------------------------
molecule {
0 1
 C    1.953395    0.659368    0.028702
 N    0.943245   -0.041757   -0.615293
 C   -0.379633   -0.200762   -0.079159
 C   -1.271549   -1.079503   -0.718167
 C    1.191052   -0.654905   -1.924799
 C   -0.844957    0.514740    1.037922
 C   -2.576425   -1.235963   -0.259287
 C   -3.030694   -0.522707    0.843772
 C   -2.152993    0.348120    1.482364
 H   -0.966255   -1.663869   -1.570721
 H   -0.181488    1.178343    1.559025
 C    3.272467    0.848726   -0.691451
 O    1.822281    1.145445    1.165208
 H    0.424257   -0.347536   -2.635749
 H    2.149364   -0.345601   -2.317497
 H    1.191684   -1.744116   -1.854288
 H   -3.234578   -1.923299   -0.773735
 H   -2.482051    0.913042    2.344147
 H    3.774779   -0.097115   -0.898602
 H    3.155087    1.391350   -1.630526
 H   -4.044476   -0.643996    1.199107
 H    3.901330    1.435316   -0.029628
}
memory 8.166666666666666GB
set_num_threads(2)
psi4_io.set_default_path("/scratch/bdw2292/Psi4-3_24_Index_0-farH_in17")
set freeze_core True
E, wfn = energy('wb97x-d/6-311+G*',return_wfn=True)
oeprop(wfn,"WIBERG_LOWDIN_INDICES")
clean()
--------------------------------------------------------------------------

    Molecular point group: c1

    Geometry (in Angstrom), charge = 0, multiplicity = 1:

       Center              X                  Y                   Z               Mass
    ------------   -----------------  -----------------  -----------------  -----------------
         C            1.953394842030     0.659368006595     0.028702036266    12.000000000000
         N            0.943244842030    -0.041756993405    -0.615292963734    14.003074004430
         C           -0.379633157970    -0.200761993405    -0.079158963734    12.000000000000
         C           -1.271549157970    -1.079502993405    -0.718166963734    12.000000000000
         C            1.191051842030    -0.654904993405    -1.924798963734    12.000000000000
         C           -0.844957157970     0.514740006595     1.037922036266    12.000000000000
         C           -2.576425157970    -1.235962993405    -0.259286963734    12.000000000000
         C           -3.030694157970    -0.522706993405     0.843772036266    12.000000000000
         C           -2.152993157970     0.348120006595     1.482364036266    12.000000000000
         H           -0.966255157970    -1.663868993405    -1.570720963734     1.007825032230
         H           -0.181488157970     1.178343006595     1.559025036266     1.007825032230
         C            3.272466842030     0.848726006595    -0.691450963734    12.000000000000
         O            1.822280842030     1.145445006595     1.165208036266    15.994914619570
         H            0.424256842030    -0.347535993405    -2.635748963734     1.007825032230
         H            2.149363842030    -0.345600993405    -2.317496963734     1.007825032230
         H            1.191683842030    -1.744115993405    -1.854287963734     1.007825032230
         H           -3.234578157970    -1.923298993405    -0.773734963734     1.007825032230
         H           -2.482051157970     0.913042006595     2.344147036266     1.007825032230
         H            3.774778842030    -0.097114993405    -0.898601963734     1.007825032230
         H            3.155086842030     1.391350006595    -1.630525963734     1.007825032230
         H           -4.044476157970    -0.643995993405     1.199107036266     1.007825032230
         H            3.901329842030     1.435316006595    -0.029627963734     1.007825032230

  Charge       = 0
  Multiplicity = 1
  Basis Set: 6-311+G*
    Blend: 6-311+G*
  Basis Set: (6-311+G* AUX)
    Blend: HEAVY-AUG-CC-PVTZ-JKFIT

    Orbital Energies [Eh]
    ---------------------

    Doubly Occupied:

       1A    -19.216866     2A    -14.488577     3A    -10.402885
       4A    -10.340394     5A    -10.331278     6A    -10.294800
       7A    -10.291654     8A    -10.290405     9A    -10.286177
      10A    -10.283920    11A    -10.279069    12A     -1.141073
      13A     -1.055221    14A     -0.956200    15A     -0.870131
      16A     -0.852106    17A     -0.836274    18A     -0.813755
      19A     -0.726800    20A     -0.700880    21A     -0.655282
      22A     -0.611369    23A     -0.588136    24A     -0.576346
      25A     -0.574795    26A     -0.544440    27A     -0.531679
      28A     -0.525650    29A     -0.507033    30A     -0.499857
      31A     -0.495483    32A     -0.481608    33A     -0.473279
      34A     -0.449050    35A     -0.444528    36A     -0.429193
      37A     -0.380027    38A     -0.339648    39A     -0.329911
      40A     -0.299285

  @DF-RKS Final Energy:  -479.51059255259770

   => Energetics <=

    Nuclear Repulsion Energy =            587.4467800990769319
    One-Electron Energy =               -1813.5573820532727041
    Two-Electron Energy =                 793.7055454183704342
    DFT Exchange-Correlation Energy =     -47.0931995170030717
    Empirical Dispersion Energy =          -0.0123364997692986
    VV10 Nonlocal Energy =                  0.0000000000000000
    Total Energy =                       -479.5105925525977000

  Dipole Moment: [D]
     X:     0.4826      Y:    -1.4963      Z:    -3.6492     Total:     3.9735

*** Psi4 exiting successfully. Buy a developer a beer!
