                               Psi4 1.5 release

  ==> Input File <==

--------------------------------------------------------------------------
molecule {
0 1
 C    2.005840    0.860161   -0.056429
 N    0.927170    0.127011   -0.657039
 C   -0.406754    0.032582   -0.036700
 C   -1.401415   -0.853203   -0.564599
 C    1.089771   -0.506388   -2.004219
 C   -0.806169    0.860330    1.056825
 C   -2.686817   -0.914478   -0.005254
 C   -3.037864   -0.106555    1.078590
 C   -2.093646    0.778281    1.603565
 H   -1.192370   -1.513994   -1.406779
 H   -0.115698    1.576707    1.491875
 C    3.317374    0.986328   -0.841533
 O    1.938080    1.382999    1.055930
 H    0.270372   -0.211829   -2.661973
 H    2.005667   -0.220698   -2.514621
 H    1.096770   -1.593081   -1.906134
 H   -3.418755   -1.605901   -0.427801
 H   -2.357016    1.418897    2.447362
 H    3.743898    0.007363   -1.061784
 H    3.171334    1.550184   -1.763228
 H   -4.039342   -0.163631    1.508959
 H    4.046252    1.530209   -0.238751
}
set optking {
  frozen_dihedral = ("
    1 2 3 4
    12 1 2 3
  ")
}
set {
  geom_maxiter 400
  g_convergence GAU_LOOSE
  dynamic_level 1
}
memory 8.166666666666666GB
set_num_threads(2)
psi4_io.set_default_path("/scratch/bdw2292/Psi4-3_24_Index_0-farH_in17")
for _ in range(1):
  try:
    set opt_coordinates both
    optimize('wb97x-d/6-311G')
    break
  except OptimizationConvergenceError:
    break
  else:
    try:
      set opt_coordinates cartesian
      optimize('wb97x-d/6-311G')
      break
    except OptimizationConvergenceError:
      pass
clean()
--------------------------------------------------------------------------

    Molecular point group: c1
  Charge       = 0
  Multiplicity = 1
  Basis Set: 6-311G
    Blend: 6-311G
  Basis Set: (6-311G AUX)
    Blend: CC-PVTZ-JKFIT
  @DF-RKS Final Energy:  -479.37184392996392
    Total Energy =                       -479.3718439299639158
    Molecular point group: c1
  Basis Set: 6-311G
    Blend: 6-311G
  Basis Set: (6-311G AUX)
    Blend: CC-PVTZ-JKFIT
  Basis Set: 6-311G
    Blend: 6-311G
  Basis Set: (6-311G AUX)
    Blend: CC-PVTZ-JKFIT
  @DF-RKS Final Energy:  -479.37827533759946
    Total Energy =                       -479.3782753375994616
  Basis Set: 6-311G
    Blend: 6-311G
  Basis Set: (6-311G AUX)
    Blend: CC-PVTZ-JKFIT
  Basis Set: 6-311G
    Blend: 6-311G
  @DF-RKS Final Energy:  -479.37923457627141
    Total Energy =                       -479.3792345762714149
  @DF-RKS Final Energy:  -479.37891240294681
    Total Energy =                       -479.3789124029468098
  @DF-RKS Final Energy:  -479.37930482850481
    Total Energy =                       -479.3793048285048712
  @DF-RKS Final Energy:  -479.37910754441981
    Total Energy =                       -479.3791075444198668
  @DF-RKS Final Energy:  -479.37930483608750
    Total Energy =                       -479.3793048360874991
  @DF-RKS Final Energy:  -479.37926598636307
    Total Energy =                       -479.3792659863631229
  @DF-RKS Final Energy:  -479.37933976510135
    Total Energy =                       -479.3793397651014061
  @DF-RKS Final Energy:  -479.37935497620214
    Total Energy =                       -479.3793549762021371
  Basis Set: (6-311G AUX)
    Blend: CC-PVTZ-JKFIT
  Basis Set: 6-311G
    Blend: 6-311G
  Basis Set: (6-311G AUX)
    Blend: CC-PVTZ-JKFIT
  @DF-RKS Final Energy:  -479.37936308633033
    Total Energy =                       -479.3793630863302724
  Basis Set: 6-311G
    Blend: 6-311G
  Basis Set: (6-311G AUX)
    Blend: CC-PVTZ-JKFIT
  Charge       = 0
  Multiplicity = 1
  Basis Set: 6-311G
    Blend: 6-311G
  Basis Set: (6-311G AUX)
    Blend: CC-PVTZ-JKFIT

    Orbital Energies [Eh]
    ---------------------

    Doubly Occupied:

       1A    -19.218669     2A    -14.491319     3A    -10.411088
       4A    -10.344091     5A    -10.332875     6A    -10.297028
       7A    -10.293161     8A    -10.291731     9A    -10.287280
      10A    -10.285181    11A    -10.279946    12A     -1.158445
      13A     -1.060881    14A     -0.960557    15A     -0.874137
      16A     -0.855040    17A     -0.839806    18A     -0.818155
      19A     -0.730247    20A     -0.702991    21A     -0.657770
      22A     -0.613665    23A     -0.589858    24A     -0.577398
      25A     -0.576138    26A     -0.545332    27A     -0.535827
      28A     -0.527548    29A     -0.509335    30A     -0.502504
      31A     -0.492293    32A     -0.481240    33A     -0.474169
      34A     -0.449336    35A     -0.444596    36A     -0.428555
      37A     -0.377850    38A     -0.336179    39A     -0.329178
      40A     -0.296224

  @DF-RKS Final Energy:  -479.37936797098178

   => Energetics <=

    Nuclear Repulsion Energy =            587.4467691898927342
    One-Electron Energy =               -1813.1371558740809178
    Two-Electron Energy =                 793.4082901825569252
    DFT Exchange-Correlation Energy =     -47.0849349692774197
    Empirical Dispersion Energy =          -0.0123365000732048
    VV10 Nonlocal Energy =                  0.0000000000000000
    Total Energy =                       -479.3793679709817752

  Dipole Moment: [D]
     X:     0.5464      Y:    -1.5161      Z:    -3.7660     Total:     4.0964

    Molecular point group: c1
  Basis Set: 6-311G
    Blend: 6-311G
  Basis Set: (6-311G AUX)
    Blend: CC-PVTZ-JKFIT

  -Total Gradient:
     Atom            X                  Y                   Z
    ------   -----------------  -----------------  -----------------
       1       -0.000182124012     0.000403833373    -0.000506650801
       2        0.000632319206    -0.001786823320     0.001024387500
       3        0.000142129118    -0.000107942998     0.000355107750
       4       -0.000378290496     0.000827186064    -0.000649763523
       5        0.000020949799    -0.000001886690    -0.000006129194
       6       -0.000000321248     0.000020571372     0.000019526611
       7       -0.000002574577     0.000004849534     0.000002459757
       8        0.000002015166     0.000009175642     0.000020005937
       9       -0.000018705827    -0.000011571685    -0.000000068860
      10       -0.000027871263     0.000006780278     0.000008469387
      11       -0.000014792199     0.000003269962    -0.000019394242
      12       -0.000233037559     0.000585855066    -0.000271313507
      13        0.000019881500     0.000017673924     0.000061627678
      14       -0.000003373861    -0.000011810367     0.000008548790
      15        0.000002020892    -0.000009239678     0.000014947947
      16       -0.000001447112     0.000016371541     0.000010376065
      17       -0.000007523487     0.000000916065     0.000012315902
      18       -0.000001051926     0.000011244790     0.000001981406
      19       -0.000022235580     0.000031031379     0.000001791497
      20        0.000011646549    -0.000057536837     0.000039067313
      21       -0.000007274924     0.000009820389     0.000006263932
      22       -0.000032803036    -0.000048729313    -0.000043463915

  **** Optimization is complete! (in 5 steps) ****
    Final optimized geometry and variables:
    Molecular point group: c1

    Geometry (in Angstrom), charge = 0, multiplicity = 1:

    C            1.953395325388     0.659367785156     0.028702201525
    N            0.943244539420    -0.041756558126    -0.615293123247
    C           -0.379632709979    -0.200762081094    -0.079158615654
    C           -1.271548699960    -1.079502882544    -0.718167344758
    C            1.191052290069    -0.654904598843    -1.924799225175
    C           -0.844957317447     0.514739610721     1.037922305572
    C           -2.576425376623    -1.235962964162    -0.259287013373
    C           -3.030694467814    -0.522706727576     0.843772472802
    C           -2.152993430498     0.348119705317     1.482363968795
    H           -0.966254652613    -1.663869271158    -1.570721336625
    H           -0.181488385874     1.178343316910     1.559025219160
    C            3.272466668380     0.848725852917    -0.691451077893
    O            1.822280573231     1.145444861770     1.165207834742
    H            0.424256527311    -0.347535643231    -2.635749443217
    H            2.149363685344    -0.345601391064    -2.317496994185
    H            1.191684361778    -1.744116224814    -1.854287548474
    H           -3.234578484967    -1.923298607716    -0.773734806603
    H           -2.482050534979     0.913042114396     2.344147420582
    H            3.774778684965    -0.097115039222    -0.898601678873
    H            3.155086555082     1.391350268183    -1.630525938298
    H           -4.044476090182    -0.643995674942     1.199107495267
    H            3.901329693688     1.435315755765    -0.029627688380

*** Psi4 exiting successfully. Buy a developer a beer!
