                               Psi4 1.5 release

  ==> Input File <==

--------------------------------------------------------------------------
molecule {
0 1
 C    2.033343    0.571100    0.050844
 N    0.906837    0.103055   -0.675591
 C   -0.391747    0.015747   -0.038849
 C   -1.253276   -1.080694   -0.320339
 C    0.960585   -0.124491   -2.144762
 C   -0.886005    1.063772    0.786103
 C   -2.538772   -1.133807    0.237351
 C   -3.002577   -0.105591    1.066351
 C   -2.173496    0.989944    1.335130
 H   -0.921515   -1.896759   -0.965800
 H   -0.262833    1.932269    1.002647
 C    3.351410    0.742309   -0.712976
 O    1.971639    0.866873    1.243161
 H   -0.039677   -0.124479   -2.580461
 H    1.521299    0.663571   -2.648241
 H    1.427623   -1.086680   -2.359333
 H   -3.180812   -1.988452    0.016347
 H   -2.530113    1.799998    1.973861
 H    3.589875   -0.137890   -1.310471
 H    3.313807    1.622488   -1.355290
 H   -4.004216   -0.156680    1.497465
 H    4.165302    0.885691   -0.000884
}
set optking {
  frozen_dihedral = ("
    1 2 3 4
    12 1 2 3
  ")
}
set {
  geom_maxiter 400
  g_convergence GAU_LOOSE
  dynamic_level 1
}
memory 8.166666666666666GB
set_num_threads(2)
psi4_io.set_default_path("/scratch/bdw2292/Psi4-3_24_Index_0-farH_in17")
for _ in range(1):
  try:
    set opt_coordinates both
    optimize('wb97x-d/6-311G')
    break
  except OptimizationConvergenceError:
    break
  else:
    try:
      set opt_coordinates cartesian
      optimize('wb97x-d/6-311G')
      break
    except OptimizationConvergenceError:
      pass
clean()
--------------------------------------------------------------------------

    Molecular point group: c1
  Charge       = 0
  Multiplicity = 1
  Basis Set: 6-311G
    Blend: 6-311G
  Basis Set: (6-311G AUX)
    Blend: CC-PVTZ-JKFIT
  @DF-RKS Final Energy:  -479.37595383082646
    Total Energy =                       -479.3759538308264609
    Molecular point group: c1
  Basis Set: 6-311G
    Blend: 6-311G
  Basis Set: (6-311G AUX)
    Blend: CC-PVTZ-JKFIT
  Basis Set: 6-311G
    Blend: 6-311G
  Basis Set: (6-311G AUX)
    Blend: CC-PVTZ-JKFIT
  @DF-RKS Final Energy:  -479.38073418912262
    Total Energy =                       -479.3807341891225633
  Basis Set: 6-311G
    Blend: 6-311G
  Basis Set: (6-311G AUX)
    Blend: CC-PVTZ-JKFIT
  Basis Set: 6-311G
    Blend: 6-311G
  @DF-RKS Final Energy:  -479.37156063929086
    Total Energy =                       -479.3715606392909194
  @DF-RKS Final Energy:  -479.38044588389920
    Total Energy =                       -479.3804458838991991
  @DF-RKS Final Energy:  -479.38117657773802
    Total Energy =                       -479.3811765777380174
  @DF-RKS Final Energy:  -479.38127781738342
    Total Energy =                       -479.3812778173834204
  @DF-RKS Final Energy:  -479.38147976412409
    Total Energy =                       -479.3814797641241512
  Basis Set: (6-311G AUX)
    Blend: CC-PVTZ-JKFIT
  Basis Set: 6-311G
    Blend: 6-311G
  Basis Set: (6-311G AUX)
    Blend: CC-PVTZ-JKFIT
  @DF-RKS Final Energy:  -479.38151893475577
    Total Energy =                       -479.3815189347557748
  Basis Set: 6-311G
    Blend: 6-311G
  Basis Set: (6-311G AUX)
    Blend: CC-PVTZ-JKFIT
  Charge       = 0
  Multiplicity = 1
  Basis Set: 6-311G
    Blend: 6-311G
  Basis Set: (6-311G AUX)
    Blend: CC-PVTZ-JKFIT

    Orbital Energies [Eh]
    ---------------------

    Doubly Occupied:

       1A    -19.211255     2A    -14.480904     3A    -10.403664
       4A    -10.339448     5A    -10.331778     6A    -10.295041
       7A    -10.293924     8A    -10.293622     9A    -10.290878
      10A    -10.289213    11A    -10.288003    12A     -1.151971
      13A     -1.055878    14A     -0.962977    15A     -0.872734
      16A     -0.856916    17A     -0.840038    18A     -0.814658
      19A     -0.727220    20A     -0.707732    21A     -0.657465
      22A     -0.611187    23A     -0.586870    24A     -0.576932
      25A     -0.572838    26A     -0.541333    27A     -0.539727
      28A     -0.520062    29A     -0.514602    30A     -0.499946
      31A     -0.494546    32A     -0.481490    33A     -0.467046
      34A     -0.449243    35A     -0.443266    36A     -0.433603
      37A     -0.365913    38A     -0.339761    39A     -0.327051
      40A     -0.298810

  @DF-RKS Final Energy:  -479.38153777091190

   => Energetics <=

    Nuclear Repulsion Energy =            588.4863125558904358
    One-Electron Energy =               -1815.3161223319507371
    Two-Electron Energy =                 794.5452380610272485
    DFT Exchange-Correlation Energy =     -47.0842341390598378
    Empirical Dispersion Energy =          -0.0127319168189658
    VV10 Nonlocal Energy =                  0.0000000000000000
    Total Energy =                       -479.3815377709118479

  Dipole Moment: [D]
     X:    -0.0189      Y:    -1.4038      Z:    -3.8732     Total:     4.1198

    Molecular point group: c1
  Basis Set: 6-311G
    Blend: 6-311G
  Basis Set: (6-311G AUX)
    Blend: CC-PVTZ-JKFIT

  -Total Gradient:
     Atom            X                  Y                   Z
    ------   -----------------  -----------------  -----------------
       1        0.000119808055    -0.000634381311     0.000200664184
       2        0.000947300034    -0.002854312545     0.001179778790
       3       -0.000352794614     0.001853250917     0.000008675551
       4       -0.000359052134     0.000202402364    -0.000673586659
       5        0.000015328262    -0.000030216457    -0.000028244756
       6        0.000084565302    -0.000041607735     0.000035396006
       7       -0.000011293194    -0.000038821027    -0.000036752489
       8        0.000085875412     0.000052284714     0.000008634090
       9       -0.000112948325    -0.000039255936     0.000082504843
      10        0.000029666017     0.000035928446    -0.000032675283
      11        0.000027784837    -0.000022009174     0.000048758274
      12       -0.000411434016     0.001357044490    -0.000566260641
      13        0.000106450022    -0.000087484258    -0.000081851766
      14        0.000034438723     0.000042474589    -0.000006801275
      15       -0.000026923236     0.000067610916    -0.000039072226
      16       -0.000067822014     0.000118598843    -0.000043549451
      17        0.000000933325     0.000012038857    -0.000020902808
      18        0.000036564181    -0.000038055106     0.000051783471
      19        0.000029246716     0.000176119599    -0.000054940634
      20       -0.000023197163     0.000005256760     0.000096668863
      21        0.000015455103    -0.000025833033     0.000031290999
      22       -0.000052130537    -0.000025757303    -0.000099981198

  **** Optimization is complete! (in 9 steps) ****
    Final optimized geometry and variables:
    Molecular point group: c1

    Geometry (in Angstrom), charge = 0, multiplicity = 1:

    C            1.938007858252     0.603292665083    -0.023826254652
    N            0.908344723387    -0.043983560453    -0.683189510796
    C           -0.387751534408    -0.180870245990    -0.086906272983
    C           -1.096610757125    -1.373683972883    -0.259459297534
    C            1.114258978311    -0.638653180734    -2.007944101700
    C           -0.976694471973     0.869048875010     0.624190046402
    C           -2.379614479336    -1.513376703891     0.263928743141
    C           -2.964413925171    -0.468702863288     0.973481934311
    C           -2.254588089948     0.717447952573     1.152077880357
    H           -0.642231775324    -2.201404969787    -0.786441565078
    H           -0.428745285332     1.782413383467     0.782968348188
    C            3.232388218247     0.790348268311    -0.780140635026
    O            1.815533586905     1.043125955767     1.131613685933
    H            0.150995597651    -0.746599893918    -2.499422095438
    H            1.729823530680     0.007133764908    -2.629598696493
    H            1.589547823614    -1.620840179379    -1.948435332505
    H           -2.914202104337    -2.443054771005     0.123553520496
    H           -2.696913888051     1.535311382657     1.704249478678
    H            3.642894211502    -0.149516532870    -1.150508226868
    H            3.097421453883     1.459320278650    -1.632614259800
    H           -3.957774898129    -0.577998196123     1.386124430533
    H            3.942985080756     1.241629677769    -0.095228515661

*** Psi4 exiting successfully. Buy a developer a beer!
