                               Psi4 1.5 release

  ==> Input File <==

--------------------------------------------------------------------------
molecule {
0 1
 C    2.007603   -0.370019   -0.203825
 N    0.869461    0.273845   -0.663234
 C   -0.419343    0.121410   -0.052071
 C   -0.763990   -0.992819    0.727329
 C    0.949446    1.173365   -1.820265
 C   -1.372195    1.137756   -0.225657
 C   -2.035045   -1.084496    1.287936
 C   -2.982295   -0.082482    1.098337
 C   -2.639307    1.031565    0.339032
 H   -0.039639   -1.766411    0.902020
 H   -1.131577    2.029540   -0.783868
 C    3.323114   -0.030400   -0.869912
 O    1.992797   -1.187897    0.731684
 H    0.043867    1.074331   -2.414844
 H    1.063789    2.218134   -1.521118
 H    1.785478    0.904245   -2.455248
 H   -2.279832   -1.955077    1.881276
 H   -3.352585    1.830769    0.188926
 H    3.376078   -0.423526   -1.887220
 H    3.507748    1.043411   -0.908290
 H   -3.966049   -0.164903    1.538989
 H    4.102795   -0.504988   -0.282454
}
memory 8.166666666666666GB
set_num_threads(2)
psi4_io.set_default_path("/scratch/bdw2292/Psi4-3_24_Index_0-farH_in17")
set freeze_core True
E, wfn = energy('wb97x-d/6-311+G*',return_wfn=True)
oeprop(wfn,"WIBERG_LOWDIN_INDICES")
clean()
--------------------------------------------------------------------------

    Molecular point group: c1

    Geometry (in Angstrom), charge = 0, multiplicity = 1:

       Center              X                  Y                   Z               Mass
    ------------   -----------------  -----------------  -----------------  -----------------
         C            2.007602932806    -0.370018866385    -0.203824968552    12.000000000000
         N            0.869460932806     0.273845133615    -0.663233968552    14.003074004430
         C           -0.419343067194     0.121410133615    -0.052070968552    12.000000000000
         C           -0.763990067194    -0.992818866385     0.727329031448    12.000000000000
         C            0.949445932806     1.173365133615    -1.820264968552    12.000000000000
         C           -1.372195067194     1.137756133615    -0.225656968552    12.000000000000
         C           -2.035045067194    -1.084495866385     1.287936031448    12.000000000000
         C           -2.982295067194    -0.082481866385     1.098337031448    12.000000000000
         C           -2.639307067194     1.031565133615     0.339032031448    12.000000000000
         H           -0.039639067194    -1.766410866385     0.902020031448     1.007825032230
         H           -1.131577067194     2.029540133615    -0.783867968552     1.007825032230
         C            3.323113932806    -0.030399866385    -0.869911968552    12.000000000000
         O            1.992796932806    -1.187896866385     0.731684031448    15.994914619570
         H            0.043866932806     1.074331133615    -2.414843968552     1.007825032230
         H            1.063788932806     2.218134133615    -1.521117968552     1.007825032230
         H            1.785477932806     0.904245133615    -2.455247968552     1.007825032230
         H           -2.279832067194    -1.955076866385     1.881276031448     1.007825032230
         H           -3.352585067194     1.830769133615     0.188926031448     1.007825032230
         H            3.376077932806    -0.423525866385    -1.887219968552     1.007825032230
         H            3.507747932806     1.043411133615    -0.908289968552     1.007825032230
         H           -3.966049067194    -0.164902866385     1.538989031448     1.007825032230
         H            4.102794932806    -0.504987866385    -0.282453968552     1.007825032230

  Charge       = 0
  Multiplicity = 1
  Basis Set: 6-311+G*
    Blend: 6-311+G*
  Basis Set: (6-311+G* AUX)
    Blend: HEAVY-AUG-CC-PVTZ-JKFIT

    Orbital Energies [Eh]
    ---------------------

    Doubly Occupied:

       1A    -19.215061     2A    -14.485525     3A    -10.400692
       4A    -10.338705     5A    -10.331364     6A    -10.293801
       7A    -10.292215     8A    -10.291029     9A    -10.287051
      10A    -10.284986    11A    -10.281023    12A     -1.139339
      13A     -1.054103    14A     -0.956854    15A     -0.869931
      16A     -0.852433    17A     -0.836225    18A     -0.812623
      19A     -0.726159    20A     -0.702208    21A     -0.654982
      22A     -0.610162    23A     -0.586213    24A     -0.576766
      25A     -0.574980    26A     -0.542252    27A     -0.532898
      28A     -0.522538    29A     -0.508311    30A     -0.498432
      31A     -0.494982    32A     -0.486177    33A     -0.470428
      34A     -0.449606    35A     -0.443605    36A     -0.430824
      37A     -0.376278    38A     -0.340822    39A     -0.329495
      40A     -0.300054

  @DF-RKS Final Energy:  -479.51222861456392

   => Energetics <=

    Nuclear Repulsion Energy =            587.8254444629433237
    One-Electron Energy =               -1814.3457241477981370
    Two-Electron Energy =                 794.1132874965563815
    DFT Exchange-Correlation Energy =     -47.0927264572913913
    Empirical Dispersion Energy =          -0.0125099689741113
    VV10 Nonlocal Energy =                  0.0000000000000000
    Total Energy =                       -479.5122286145639237

  Dipole Moment: [D]
     X:    -0.0280      Y:     2.5209      Z:    -3.0577     Total:     3.9630

*** Psi4 exiting successfully. Buy a developer a beer!
