                               Psi4 1.5 release

  ==> Input File <==

--------------------------------------------------------------------------
molecule {
0 1
 C    1.915639    0.730119   -0.115842
 N    0.975624   -0.202800   -0.524506
 C   -0.374915   -0.212874   -0.041580
 C   -1.365541   -0.830941   -0.820024
 C    1.332946   -1.226434   -1.513262
 C   -0.738303    0.323430    1.202795
 C   -2.680895   -0.905927   -0.372013
 C   -3.037834   -0.370284    0.861107
 C   -2.058306    0.243111    1.637184
 H   -1.129136   -1.236191   -1.792146
 H    0.000649    0.814815    1.808202
 C    3.271180    0.702112   -0.787292
 O    1.683773    1.587379    0.753586
 H    1.053409   -0.933135   -2.528016
 H    2.399079   -1.419487   -1.493034
 H    0.828015   -2.157181   -1.264249
 H   -3.424896   -1.381722   -0.996643
 H   -2.315926    0.665509    2.599039
 H    3.850844   -0.176034   -0.495474
 H    3.199217    0.718015   -1.874984
 H   -4.059575   -0.428039    1.209728
 H    3.804222    1.586414   -0.452819
}
memory 8.166666666666666GB
set_num_threads(2)
psi4_io.set_default_path("/scratch/bdw2292/Psi4-3_24_Index_0-farH_in17")
set freeze_core True
E, wfn = energy('wb97x-d/6-311+G*',return_wfn=True)
oeprop(wfn,"WIBERG_LOWDIN_INDICES")
clean()
--------------------------------------------------------------------------

    Molecular point group: c1

    Geometry (in Angstrom), charge = 0, multiplicity = 1:

       Center              X                  Y                   Z               Mass
    ------------   -----------------  -----------------  -----------------  -----------------
         C            1.915638961331     0.730119063844    -0.115842054505    12.000000000000
         N            0.975623961331    -0.202799936156    -0.524506054505    14.003074004430
         C           -0.374915038669    -0.212873936156    -0.041580054505    12.000000000000
         C           -1.365541038669    -0.830940936156    -0.820024054505    12.000000000000
         C            1.332945961331    -1.226433936156    -1.513262054505    12.000000000000
         C           -0.738303038669     0.323430063844     1.202794945495    12.000000000000
         C           -2.680895038669    -0.905926936156    -0.372013054505    12.000000000000
         C           -3.037834038669    -0.370283936156     0.861106945495    12.000000000000
         C           -2.058306038669     0.243111063844     1.637183945495    12.000000000000
         H           -1.129136038669    -1.236190936156    -1.792146054505     1.007825032230
         H            0.000648961331     0.814815063844     1.808201945495     1.007825032230
         C            3.271179961331     0.702112063844    -0.787292054505    12.000000000000
         O            1.683772961331     1.587379063844     0.753585945495    15.994914619570
         H            1.053408961331    -0.933134936156    -2.528016054505     1.007825032230
         H            2.399078961331    -1.419486936156    -1.493034054505     1.007825032230
         H            0.828014961331    -2.157180936156    -1.264249054505     1.007825032230
         H           -3.424896038669    -1.381721936156    -0.996643054505     1.007825032230
         H           -2.315926038669     0.665509063844     2.599038945495     1.007825032230
         H            3.850843961331    -0.176033936156    -0.495474054505     1.007825032230
         H            3.199216961331     0.718015063844    -1.874984054505     1.007825032230
         H           -4.059575038669    -0.428038936156     1.209727945495     1.007825032230
         H            3.804221961331     1.586414063844    -0.452819054505     1.007825032230

  Charge       = 0
  Multiplicity = 1
  Basis Set: 6-311+G*
    Blend: 6-311+G*
  Basis Set: (6-311+G* AUX)
    Blend: HEAVY-AUG-CC-PVTZ-JKFIT

    Orbital Energies [Eh]
    ---------------------

    Doubly Occupied:

       1A    -19.214916     2A    -14.485288     3A    -10.400545
       4A    -10.338573     5A    -10.331289     6A    -10.293776
       7A    -10.292230     8A    -10.291111     9A    -10.287156
      10A    -10.285091    11A    -10.281266    12A     -1.139215
      13A     -1.053984    14A     -0.956894    15A     -0.869902
      16A     -0.852531    17A     -0.836291    18A     -0.812662
      19A     -0.726009    20A     -0.702290    21A     -0.654907
      22A     -0.610292    23A     -0.586175    24A     -0.576498
      25A     -0.575117    26A     -0.542359    27A     -0.532993
      28A     -0.522493    29A     -0.508461    30A     -0.498373
      31A     -0.494972    32A     -0.486166    33A     -0.470232
      34A     -0.449950    35A     -0.443262    36A     -0.430932
      37A     -0.375901    38A     -0.341120    39A     -0.329473
      40A     -0.300091

  @DF-RKS Final Energy:  -479.51236071545304

   => Energetics <=

    Nuclear Repulsion Energy =            587.8541127237094770
    One-Electron Energy =               -1814.4039330966802481
    Two-Electron Energy =                 794.1428050340939535
    DFT Exchange-Correlation Energy =     -47.0928294334432991
    Empirical Dispersion Energy =          -0.0125159431329388
    VV10 Nonlocal Energy =                  0.0000000000000000
    Total Energy =                       -479.5123607154530418

  Dipole Moment: [D]
     X:     0.7207      Y:    -2.8585      Z:    -2.6696     Total:     3.9771

*** Psi4 exiting successfully. Buy a developer a beer!
