                               Psi4 1.5 release

  ==> Input File <==

--------------------------------------------------------------------------
molecule {
0 1
 C    1.982558   -0.609775   -0.454008
 N    0.890903    0.290243   -0.702089
 C   -0.432555    0.127270   -0.074051
 C   -0.684572   -0.822747    0.962238
 C    1.094722    1.529771   -1.517981
 C   -1.557181    0.886460   -0.533092
 C   -1.961838   -0.976398    1.517861
 C   -3.035267   -0.206285    1.065257
 C   -2.826849    0.718201    0.039570
 H    0.115191   -1.446986    1.348851
 H   -1.467501    1.611763   -1.342776
 C    3.345287   -0.278133   -1.075862
 O    1.885269   -1.629783    0.228098
 H    0.589173    1.429878   -2.479786
 H    0.696303    2.399585   -0.992636
 H    2.139238    1.753219   -1.718889
 H   -2.113261   -1.706706    2.314941
 H   -3.660305    1.320659   -0.327486
 H    3.274913   -0.169933   -2.158513
 H    3.768533    0.624312   -0.634150
 H   -4.026217   -0.328050    1.506405
 H    4.040137   -1.095269   -0.875640
}
set optking {
  frozen_dihedral = ("
    1 2 3 4
    12 1 2 3
  ")
}
set {
  geom_maxiter 400
  g_convergence GAU_LOOSE
  dynamic_level 1
}
memory 8.166666666666666GB
set_num_threads(2)
psi4_io.set_default_path("/scratch/bdw2292/Psi4-3_24_Index_0-farH_in17")
for _ in range(1):
  try:
    set opt_coordinates both
    optimize('wb97x-d/6-311G')
    break
  except OptimizationConvergenceError:
    break
  else:
    try:
      set opt_coordinates cartesian
      optimize('wb97x-d/6-311G')
      break
    except OptimizationConvergenceError:
      pass
clean()
--------------------------------------------------------------------------

    Molecular point group: c1
  Charge       = 0
  Multiplicity = 1
  Basis Set: 6-311G
    Blend: 6-311G
  Basis Set: (6-311G AUX)
    Blend: CC-PVTZ-JKFIT
  @DF-RKS Final Energy:  -479.37174771472593
    Total Energy =                       -479.3717477147258705
    Molecular point group: c1
  Basis Set: 6-311G
    Blend: 6-311G
  Basis Set: (6-311G AUX)
    Blend: CC-PVTZ-JKFIT
  Basis Set: 6-311G
    Blend: 6-311G
  Basis Set: (6-311G AUX)
    Blend: CC-PVTZ-JKFIT
  @DF-RKS Final Energy:  -479.37812681808441
    Total Energy =                       -479.3781268180844108
  Basis Set: 6-311G
    Blend: 6-311G
  Basis Set: (6-311G AUX)
    Blend: CC-PVTZ-JKFIT
  Basis Set: 6-311G
    Blend: 6-311G
  @DF-RKS Final Energy:  -479.37915288569661
    Total Energy =                       -479.3791528856966124
  @DF-RKS Final Energy:  -479.37914973447482
    Total Energy =                       -479.3791497344748223
  @DF-RKS Final Energy:  -479.37910867412961
    Total Energy =                       -479.3791086741296112
  @DF-RKS Final Energy:  -479.37914972377621
    Total Energy =                       -479.3791497237762087
  @DF-RKS Final Energy:  -479.37915825098480
    Total Energy =                       -479.3791582509848013
  @DF-RKS Final Energy:  -479.37925916957147
    Total Energy =                       -479.3792591695714691
  @DF-RKS Final Energy:  -479.37932192929992
    Total Energy =                       -479.3793219292999197
  Basis Set: (6-311G AUX)
    Blend: CC-PVTZ-JKFIT
  Basis Set: 6-311G
    Blend: 6-311G
  Basis Set: (6-311G AUX)
    Blend: CC-PVTZ-JKFIT
  @DF-RKS Final Energy:  -479.37931951861975
    Total Energy =                       -479.3793195186197522
  Basis Set: 6-311G
    Blend: 6-311G
  Basis Set: (6-311G AUX)
    Blend: CC-PVTZ-JKFIT
  Charge       = 0
  Multiplicity = 1
  Basis Set: 6-311G
    Blend: 6-311G
  Basis Set: (6-311G AUX)
    Blend: CC-PVTZ-JKFIT

    Orbital Energies [Eh]
    ---------------------

    Doubly Occupied:

       1A    -19.218837     2A    -14.491519     3A    -10.411249
       4A    -10.344143     5A    -10.332924     6A    -10.297167
       7A    -10.293120     8A    -10.291686     9A    -10.287195
      10A    -10.285109    11A    -10.279722    12A     -1.158561
      13A     -1.060952    14A     -0.960497    15A     -0.874124
      16A     -0.854977    17A     -0.839740    18A     -0.818167
      19A     -0.730289    20A     -0.702901    21A     -0.657760
      22A     -0.613650    23A     -0.589899    24A     -0.577488
      25A     -0.576114    26A     -0.545344    27A     -0.535734
      28A     -0.527604    29A     -0.509206    30A     -0.502483
      31A     -0.492294    32A     -0.481165    33A     -0.474349
      34A     -0.449108    35A     -0.444801    36A     -0.428457
      37A     -0.378105    38A     -0.335885    39A     -0.329299
      40A     -0.296250

  @DF-RKS Final Energy:  -479.37932474296287

   => Energetics <=

    Nuclear Repulsion Energy =            587.4070296036080663
    One-Electron Energy =               -1813.0573777579934358
    Two-Electron Energy =                 793.3678939687666798
    DFT Exchange-Correlation Energy =     -47.0845402834453921
    Empirical Dispersion Energy =          -0.0123302738987224
    VV10 Nonlocal Energy =                  0.0000000000000000
    Total Energy =                       -479.3793247429629218

  Dipole Moment: [D]
     X:     0.7536      Y:     3.4065      Z:    -2.1411     Total:     4.0934

    Molecular point group: c1
  Basis Set: 6-311G
    Blend: 6-311G
  Basis Set: (6-311G AUX)
    Blend: CC-PVTZ-JKFIT

  -Total Gradient:
     Atom            X                  Y                   Z
    ------   -----------------  -----------------  -----------------
       1        0.000102205636     0.000221515588     0.000044886075
       2       -0.000971349257    -0.001705783234    -0.002358302974
       3        0.000828786107     0.001623606585     0.002299997812
       4       -0.000192553983    -0.000612260275    -0.000766549919
       5       -0.000031005728    -0.000025163764    -0.000044724891
       6       -0.000008396573     0.000006256356     0.000016097370
       7       -0.000074953085     0.000051868024     0.000022104965
       8        0.000012112033    -0.000080311633     0.000019732130
       9       -0.000002881890     0.000033503335    -0.000002021243
      10       -0.000013665703    -0.000002557258     0.000001012376
      11        0.000013785690     0.000000012245    -0.000022100139
      12        0.000017603666     0.000299974577     0.000539791711
      13        0.000013787364     0.000018790683     0.000123037464
      14       -0.000027473228    -0.000010445036    -0.000021144169
      15       -0.000018481089     0.000043579441     0.000018582268
      16        0.000053862160     0.000027302338     0.000018073907
      17        0.000005209964    -0.000010817860    -0.000000434301
      18       -0.000012553431    -0.000006248984     0.000004355799
      19        0.000001699470     0.000054809653    -0.000064979754
      20        0.000074391861     0.000172838029     0.000101618394
      21       -0.000006702442     0.000004038045     0.000010465992
      22        0.000071819194    -0.000116319674     0.000058265270

  **** Optimization is complete! (in 5 steps) ****
    Final optimized geometry and variables:
    Molecular point group: c1

    Geometry (in Angstrom), charge = 0, multiplicity = 1:

    C            1.929926672324    -0.644556675042    -0.335160253040
    N            0.931645858016     0.293075387337    -0.562147755158
    C           -0.386231152042     0.204898992801     0.002036971111
    C           -0.741796397388    -0.741867627954     0.978429160329
    C            1.201769080590     1.468122960131    -1.398229262469
    C           -1.373270357061     1.107184470994    -0.432072515705
    C           -2.031009647364    -0.758810125979     1.502241350671
    C           -2.999651878722     0.144184071737     1.075204560768
    C           -2.658638383416     1.075286573996     0.101084675627
    H           -0.018406353337    -1.462267363101     1.309624250069
    H           -1.164847446164     1.840160565842    -1.194149571365
    C            3.310465333965    -0.379986146463    -0.899953775873
    O            1.746649299740    -1.685178664964     0.319528043247
    H            0.643364971198     1.419683292409    -2.334848428592
    H            0.924505949613     2.379445867708    -0.868406557668
    H            2.253405011249     1.533579734026    -1.639227816671
    H           -2.273074922317    -1.497111114879     2.254840335706
    H           -3.392526155747     1.785183770194    -0.256305599721
    H            3.313851811956    -0.322338388077    -1.989296261958
    H            3.747783082926     0.537796368172    -0.502959001189
    H           -3.998144839119     0.120026589925     1.488925454003
    H            3.930877078304    -1.217343970831    -0.596327133707

*** Psi4 exiting successfully. Buy a developer a beer!
