                               Psi4 1.5 release

  ==> Input File <==

--------------------------------------------------------------------------
molecule {
0 1
 C    1.721420   -0.734174   -0.908590
 N    0.882975    0.372742   -0.658939
 C   -0.418533    0.154366   -0.090818
 C   -0.557997   -0.303888    1.243612
 C    1.298123    1.773412   -0.899798
 C   -1.582740    0.409029   -0.858234
 C   -1.834649   -0.502278    1.787128
 C   -2.982236   -0.249968    1.023385
 C   -2.850731    0.204717   -0.295635
 H    0.327080   -0.508762    1.848755
 H   -1.498719    0.761820   -1.888176
 C    3.139842   -0.449555   -1.409068
 O    1.356620   -1.887080   -0.688197
 H    1.424937    1.953315   -1.968228
 H    0.547215    2.472748   -0.528032
 H    2.234238    1.993894   -0.385465
 H   -1.930148   -0.853274    2.816147
 H   -3.740245    0.406633   -0.895099
 H    3.129676    0.161230   -2.311925
 H    3.731217    0.045637   -0.638748
 H   -3.972968   -0.407164    1.454138
 H    3.632305   -1.392102   -1.651947
}
set optking {
  frozen_dihedral = ("
    1 2 3 4
    12 1 2 3
  ")
}
set {
  geom_maxiter 400
  g_convergence GAU_LOOSE
  dynamic_level 1
}
memory 8.166666666666666GB
set_num_threads(2)
psi4_io.set_default_path("/scratch/bdw2292/Psi4-3_24_Index_0-farH_in17")
for _ in range(1):
  try:
    set opt_coordinates both
    optimize('wb97x-d/6-311G')
    break
  except OptimizationConvergenceError:
    break
  else:
    try:
      set opt_coordinates cartesian
      optimize('wb97x-d/6-311G')
      break
    except OptimizationConvergenceError:
      pass
clean()
--------------------------------------------------------------------------

    Molecular point group: c1
  Charge       = 0
  Multiplicity = 1
  Basis Set: 6-311G
    Blend: 6-311G
  Basis Set: (6-311G AUX)
    Blend: CC-PVTZ-JKFIT
  @DF-RKS Final Energy:  -479.37663585861094
    Total Energy =                       -479.3766358586109959
    Molecular point group: c1
  Basis Set: 6-311G
    Blend: 6-311G
  Basis Set: (6-311G AUX)
    Blend: CC-PVTZ-JKFIT
  Basis Set: 6-311G
    Blend: 6-311G
  Basis Set: (6-311G AUX)
    Blend: CC-PVTZ-JKFIT
  @DF-RKS Final Energy:  -479.38040741453239
    Total Energy =                       -479.3804074145323852
  Basis Set: 6-311G
    Blend: 6-311G
  Basis Set: (6-311G AUX)
    Blend: CC-PVTZ-JKFIT
  Basis Set: 6-311G
    Blend: 6-311G
  @DF-RKS Final Energy:  -479.38045644875308
    Total Energy =                       -479.3804564487530797
  @DF-RKS Final Energy:  -479.38063267059351
    Total Energy =                       -479.3806326705935135
  @DF-RKS Final Energy:  -479.38083578011191
    Total Energy =                       -479.3808357801118518
  @DF-RKS Final Energy:  -479.38083394699265
    Total Energy =                       -479.3808339469926523
  @DF-RKS Final Energy:  -479.38083576546563
    Total Energy =                       -479.3808357654656334
  @DF-RKS Final Energy:  -479.38084631556171
    Total Energy =                       -479.3808463155616550
  Basis Set: (6-311G AUX)
    Blend: CC-PVTZ-JKFIT
  Basis Set: 6-311G
    Blend: 6-311G
  Basis Set: (6-311G AUX)
    Blend: CC-PVTZ-JKFIT
  @DF-RKS Final Energy:  -479.38084278567459
    Total Energy =                       -479.3808427856746448
  Basis Set: 6-311G
    Blend: 6-311G
  Basis Set: (6-311G AUX)
    Blend: CC-PVTZ-JKFIT
  Charge       = 0
  Multiplicity = 1
  Basis Set: 6-311G
    Blend: 6-311G
  Basis Set: (6-311G AUX)
    Blend: CC-PVTZ-JKFIT

    Orbital Energies [Eh]
    ---------------------

    Doubly Occupied:

       1A    -19.204463     2A    -14.471934     3A    -10.397229
       4A    -10.336061     5A    -10.329657     6A    -10.296611
       7A    -10.296021     8A    -10.294909     9A    -10.293999
      10A    -10.293743    11A    -10.290373    12A     -1.145662
      13A     -1.050325    14A     -0.965173    15A     -0.871162
      16A     -0.858553    17A     -0.839820    18A     -0.811176
      19A     -0.723627    20A     -0.713068    21A     -0.657438
      22A     -0.609805    23A     -0.585559    24A     -0.576670
      25A     -0.569817    26A     -0.542087    27A     -0.539066
      28A     -0.518698    29A     -0.514534    30A     -0.500093
      31A     -0.493861    32A     -0.477208    33A     -0.461738
      34A     -0.447451    35A     -0.445598    36A     -0.433705
      37A     -0.349150    38A     -0.337292    39A     -0.326905
      40A     -0.310662

  @DF-RKS Final Energy:  -479.38084896521048

   => Energetics <=

    Nuclear Repulsion Energy =            588.2877355156925887
    One-Electron Energy =               -1815.0155690915867126
    Two-Electron Energy =                 794.4420935261334762
    DFT Exchange-Correlation Energy =     -47.0822253889016835
    Empirical Dispersion Energy =          -0.0128835265481014
    VV10 Nonlocal Energy =                  0.0000000000000000
    Total Energy =                       -479.3808489652105322

  Dipole Moment: [D]
     X:     0.4959      Y:     4.1373      Z:    -0.2936     Total:     4.1772

    Molecular point group: c1
  Basis Set: 6-311G
    Blend: 6-311G
  Basis Set: (6-311G AUX)
    Blend: CC-PVTZ-JKFIT

  -Total Gradient:
     Atom            X                  Y                   Z
    ------   -----------------  -----------------  -----------------
       1       -0.000869318906    -0.000112212335    -0.002850497126
       2       -0.000271659639     0.000321547975    -0.000252708597
       3        0.000528364252    -0.001614069891     0.001031049889
       4       -0.000027850568     0.001236479777     0.000310287639
       5        0.000085824060     0.000064680519     0.000009608832
       6       -0.000010915827    -0.000044922702     0.000024824079
       7       -0.000042658027     0.000017517058    -0.000089409180
       8        0.000067392242    -0.000019428492     0.000015442861
       9        0.000073935283    -0.000002148010     0.000060265380
      10        0.000006362344    -0.000017739726     0.000003647334
      11        0.000014034923    -0.000011071236     0.000012428881
      12        0.000441429278     0.000046980934     0.002022168900
      13        0.000038817286     0.000083196137    -0.000056348497
      14        0.000021666545     0.000063956947     0.000001449694
      15        0.000101630897    -0.000218018113    -0.000058815610
      16       -0.000148213004    -0.000005051540    -0.000055757740
      17       -0.000002466957    -0.000024478724     0.000023545960
      18       -0.000026891714    -0.000035877588     0.000001897429
      19       -0.000044146106     0.000082228638    -0.000114722086
      20        0.000029520129     0.000021088844    -0.000007124135
      21       -0.000025155664    -0.000031268402     0.000016340695
      22       -0.000058381204    -0.000023104622    -0.000005956380

  **** Optimization is complete! (in 3 steps) ****
    Final optimized geometry and variables:
    Molecular point group: c1

    Geometry (in Angstrom), charge = 0, multiplicity = 1:

    C            1.797230659095    -0.648926527078    -0.618501878753
    N            0.978953419104     0.442431561119    -0.417885671922
    C           -0.347397200418     0.246791587382     0.098036131939
    C           -0.531422408255    -0.188048069351     1.409036510600
    C            1.390068740650     1.805774718069    -0.763110941221
    C           -1.450957720133     0.538712036897    -0.701364350816
    C           -1.819154519502    -0.339745329166     1.913983652857
    C           -2.925112390049    -0.041954789653     1.118974058788
    C           -2.738887646216     0.399994181805    -0.188710488124
    H            0.331942241102    -0.423364015039     2.014077046557
    H           -1.296794653629     0.861816997958    -1.722192713618
    C            3.213341627627    -0.364808566547    -1.056342883136
    O            1.404428376010    -1.809373784735    -0.411813329840
    H            1.444953828574     1.958213228987    -1.844029218093
    H            0.658223516884     2.497546126660    -0.355477227757
    H            2.359757952237     2.048337123326    -0.328281263397
    H           -1.959634833612    -0.688861329747     2.927789883346
    H           -3.593071991051     0.625105977202    -0.812573604624
    H            3.254925376895     0.227273381266    -1.972138628041
    H            3.761354514870     0.177569619578    -0.282932645853
    H           -3.924635313217    -0.158209205685     1.515013006938
    H            3.701322818893    -1.318957322748    -1.228302475074

*** Psi4 exiting successfully. Buy a developer a beer!
