                               Psi4 1.5 release

  ==> Input File <==

--------------------------------------------------------------------------
molecule {
0 1
 C    1.639671   -0.568976   -0.994664
 N    0.948196    0.492742   -0.453530
 C   -0.316249    0.250102    0.187335
 C   -0.376482    0.130150    1.573772
 C    1.511324    1.841073   -0.355186
 C   -1.477120    0.150600   -0.575084
 C   -1.603376   -0.073126    2.200635
 C   -2.767359   -0.168672    1.440554
 C   -2.701687   -0.061135    0.052342
 H    0.536242    0.186722    2.151375
 H   -1.409107    0.224423   -1.650980
 C    3.009936   -0.273052   -1.553709
 O    1.157193   -1.713438   -1.026742
 H    1.949902    2.152795   -1.302506
 H    0.706857    2.531585   -0.114645
 H    2.274309    1.915544    0.425372
 H   -1.648287   -0.166492    3.277030
 H   -3.601668   -0.146146   -0.541122
 H    2.950746    0.386491   -2.421913
 H    3.659460    0.201754   -0.816742
 H   -3.719362   -0.332992    1.926388
 H    3.449836   -1.215754   -1.863445
}
memory 8.166666666666666GB
set_num_threads(2)
psi4_io.set_default_path("/scratch/bdw2292/Psi4-3_24_Index_0-farH_in17")
set freeze_core True
E, wfn = energy('wb97x-d/6-311+G*',return_wfn=True)
oeprop(wfn,"WIBERG_LOWDIN_INDICES")
clean()
--------------------------------------------------------------------------

    Molecular point group: c1

    Geometry (in Angstrom), charge = 0, multiplicity = 1:

       Center              X                  Y                   Z               Mass
    ------------   -----------------  -----------------  -----------------  -----------------
         C            1.639671157498    -0.568976037981    -0.994664004322    12.000000000000
         N            0.948196157498     0.492741962019    -0.453530004322    14.003074004430
         C           -0.316248842502     0.250101962019     0.187334995678    12.000000000000
         C           -0.376481842502     0.130149962019     1.573771995678    12.000000000000
         C            1.511324157498     1.841072962019    -0.355186004322    12.000000000000
         C           -1.477119842502     0.150599962019    -0.575084004322    12.000000000000
         C           -1.603375842502    -0.073126037981     2.200634995678    12.000000000000
         C           -2.767358842502    -0.168672037981     1.440553995678    12.000000000000
         C           -2.701686842502    -0.061135037981     0.052341995678    12.000000000000
         H            0.536242157498     0.186721962019     2.151374995678     1.007825032230
         H           -1.409106842502     0.224422962019    -1.650980004322     1.007825032230
         C            3.009936157498    -0.273052037981    -1.553709004322    12.000000000000
         O            1.157193157498    -1.713438037981    -1.026742004322    15.994914619570
         H            1.949902157498     2.152794962019    -1.302506004322     1.007825032230
         H            0.706857157498     2.531584962019    -0.114645004322     1.007825032230
         H            2.274309157498     1.915543962019     0.425371995678     1.007825032230
         H           -1.648286842502    -0.166492037981     3.277029995678     1.007825032230
         H           -3.601667842502    -0.146146037981    -0.541122004322     1.007825032230
         H            2.950746157498     0.386490962019    -2.421913004322     1.007825032230
         H            3.659460157498     0.201753962019    -0.816742004322     1.007825032230
         H           -3.719361842502    -0.332992037981     1.926387995678     1.007825032230
         H            3.449836157498    -1.215754037981    -1.863445004322     1.007825032230

  Charge       = 0
  Multiplicity = 1
  Basis Set: 6-311+G*
    Blend: 6-311+G*
  Basis Set: (6-311+G* AUX)
    Blend: HEAVY-AUG-CC-PVTZ-JKFIT

    Orbital Energies [Eh]
    ---------------------

    Doubly Occupied:

       1A    -19.204566     2A    -14.469001     3A    -10.389527
       4A    -10.331197     5A    -10.327950     6A    -10.295036
       7A    -10.294478     8A    -10.294032     9A    -10.293216
      10A    -10.292757    11A    -10.288649    12A     -1.129326
      13A     -1.044195    14A     -0.960647    15A     -0.867163
      16A     -0.855586    17A     -0.836684    18A     -0.805938
      19A     -0.719256    20A     -0.712260    21A     -0.654659
      22A     -0.607746    23A     -0.582418    24A     -0.574825
      25A     -0.571282    26A     -0.539293    27A     -0.537081
      28A     -0.516589    29A     -0.512432    30A     -0.498131
      31A     -0.492905    32A     -0.482364    33A     -0.459849
      34A     -0.448682    35A     -0.445057    36A     -0.433358
      37A     -0.342398    38A     -0.336558    39A     -0.331812
      40A     -0.323543

  @DF-RKS Final Energy:  -479.51348322089575

   => Energetics <=

    Nuclear Repulsion Energy =            588.2688337508290033
    One-Electron Energy =               -1815.3949038089040187
    Two-Electron Energy =                 794.7126974011322318
    DFT Exchange-Correlation Energy =     -47.0872473010899029
    Empirical Dispersion Energy =          -0.0128632628629273
    VV10 Nonlocal Energy =                  0.0000000000000000
    Total Energy =                       -479.5134832208957505

  Dipole Moment: [D]
     X:     0.7229      Y:     3.8961      Z:     0.5951     Total:     4.0070

*** Psi4 exiting successfully. Buy a developer a beer!
