                               Psi4 1.5 release

  ==> Input File <==

--------------------------------------------------------------------------
molecule {
0 1
 C    1.797231   -0.648927   -0.618502
 N    0.978953    0.442432   -0.417886
 C   -0.347397    0.246792    0.098036
 C   -0.531422   -0.188048    1.409037
 C    1.390069    1.805775   -0.763111
 C   -1.450958    0.538712   -0.701364
 C   -1.819155   -0.339745    1.913984
 C   -2.925112   -0.041955    1.118974
 C   -2.738888    0.399994   -0.188710
 H    0.331942   -0.423364    2.014077
 H   -1.296795    0.861817   -1.722193
 C    3.213342   -0.364809   -1.056343
 O    1.404428   -1.809374   -0.411813
 H    1.444954    1.958213   -1.844029
 H    0.658224    2.497546   -0.355477
 H    2.359758    2.048337   -0.328281
 H   -1.959635   -0.688861    2.927790
 H   -3.593072    0.625106   -0.812574
 H    3.254925    0.227273   -1.972139
 H    3.761355    0.177570   -0.282933
 H   -3.924635   -0.158209    1.515013
 H    3.701323   -1.318957   -1.228302
}
memory 8.166666666666666GB
set_num_threads(2)
psi4_io.set_default_path("/scratch/bdw2292/Psi4-3_24_Index_0-farH_in17")
set freeze_core True
E, wfn = energy('wb97x-d/6-311+G*',return_wfn=True)
oeprop(wfn,"WIBERG_LOWDIN_INDICES")
clean()
--------------------------------------------------------------------------

    Molecular point group: c1

    Geometry (in Angstrom), charge = 0, multiplicity = 1:

       Center              X                  Y                   Z               Mass
    ------------   -----------------  -----------------  -----------------  -----------------
         C            1.797231007045    -0.648927001447    -0.618502099101    12.000000000000
         N            0.978953007045     0.442431998553    -0.417886099101    14.003074004430
         C           -0.347396992955     0.246791998553     0.098035900899    12.000000000000
         C           -0.531421992955    -0.188048001447     1.409036900899    12.000000000000
         C            1.390069007045     1.805774998553    -0.763111099101    12.000000000000
         C           -1.450957992955     0.538711998553    -0.701364099101    12.000000000000
         C           -1.819154992955    -0.339745001447     1.913983900899    12.000000000000
         C           -2.925111992955    -0.041955001447     1.118973900899    12.000000000000
         C           -2.738887992955     0.399993998553    -0.188710099101    12.000000000000
         H            0.331942007045    -0.423364001447     2.014076900899     1.007825032230
         H           -1.296794992955     0.861816998553    -1.722193099101     1.007825032230
         C            3.213342007045    -0.364809001447    -1.056343099101    12.000000000000
         O            1.404428007045    -1.809374001447    -0.411813099101    15.994914619570
         H            1.444954007045     1.958212998553    -1.844029099101     1.007825032230
         H            0.658224007045     2.497545998553    -0.355477099101     1.007825032230
         H            2.359758007045     2.048336998553    -0.328281099101     1.007825032230
         H           -1.959634992955    -0.688861001447     2.927789900899     1.007825032230
         H           -3.593071992955     0.625105998553    -0.812574099101     1.007825032230
         H            3.254925007045     0.227272998553    -1.972139099101     1.007825032230
         H            3.761355007045     0.177569998553    -0.282933099101     1.007825032230
         H           -3.924634992955    -0.158209001447     1.515012900899     1.007825032230
         H            3.701323007045    -1.318957001447    -1.228302099101     1.007825032230

  Charge       = 0
  Multiplicity = 1
  Basis Set: 6-311+G*
    Blend: 6-311+G*
  Basis Set: (6-311+G* AUX)
    Blend: HEAVY-AUG-CC-PVTZ-JKFIT

    Orbital Energies [Eh]
    ---------------------

    Doubly Occupied:

       1A    -19.205982     2A    -14.470902     3A    -10.390716
       4A    -10.332156     5A    -10.328541     6A    -10.294674
       7A    -10.294114     8A    -10.293067     9A    -10.292013
      10A    -10.291744    11A    -10.289318    12A     -1.130609
      13A     -1.045456    14A     -0.960217    15A     -0.867566
      16A     -0.855269    17A     -0.836821    18A     -0.806919
      19A     -0.720580    20A     -0.710595    21A     -0.654547
      22A     -0.608053    23A     -0.583040    24A     -0.574441
      25A     -0.571727    26A     -0.539001    27A     -0.537665
      28A     -0.515866    29A     -0.513216    30A     -0.498618
      31A     -0.493406    32A     -0.483136    33A     -0.461070
      34A     -0.447757    35A     -0.445300    36A     -0.433975
      37A     -0.351607    38A     -0.338569    39A     -0.331574
      40A     -0.314343

  @DF-RKS Final Energy:  -479.51366558200243

   => Energetics <=

    Nuclear Repulsion Energy =            588.2876977106780032
    One-Electron Energy =               -1815.4090200285493211
    Two-Electron Energy =                 794.7084728571566075
    DFT Exchange-Correlation Energy =     -47.0879325955087467
    Empirical Dispersion Energy =          -0.0128835257789480
    VV10 Nonlocal Energy =                  0.0000000000000000
    Total Energy =                       -479.5136655820023748

  Dipole Moment: [D]
     X:     0.4992      Y:     3.9761      Z:    -0.3211     Total:     4.0201

*** Psi4 exiting successfully. Buy a developer a beer!
