                               Psi4 1.5 release

  ==> Input File <==

--------------------------------------------------------------------------
molecule {
0 1
 C    2.035725    0.064772    0.036621
 N    0.866320    0.245138   -0.729003
 C   -0.414079    0.105461   -0.096878
 C   -0.985357   -1.176948    0.096181
 C    0.882121    0.535744   -2.179321
 C   -1.139062    1.254243    0.305007
 C   -2.251018   -1.297223    0.687189
 C   -2.963082   -0.158103    1.087252
 C   -2.403676    1.112418    0.893559
 H   -0.442285   -2.072710   -0.210958
 H   -0.717272    2.250717    0.159539
 C    3.377714    0.334347   -0.650258
 O    1.991165   -0.261562    1.220633
 H   -0.125454    0.485792   -2.596197
 H    1.271417    1.538422   -2.361143
 H    1.496729   -0.190334   -2.713046
 H   -2.683396   -2.289221    0.830074
 H   -2.954697    2.004264    1.197337
 H    3.571731   -0.401667   -1.430478
 H    3.409558    1.336039   -1.079120
 H   -3.948473   -0.259993    1.546068
 H    4.182052    0.261697    0.083204
}
set optking {
  frozen_dihedral = ("
    1 2 3 4
    12 1 2 3
  ")
}
set {
  geom_maxiter 400
  g_convergence GAU_LOOSE
  dynamic_level 1
}
memory 8.166666666666666GB
set_num_threads(2)
psi4_io.set_default_path("/scratch/bdw2292/Psi4-3_24_Index_0-farH_in17")
for _ in range(1):
  try:
    set opt_coordinates both
    optimize('wb97x-d/6-311G')
    break
  except OptimizationConvergenceError:
    break
  else:
    try:
      set opt_coordinates cartesian
      optimize('wb97x-d/6-311G')
      break
    except OptimizationConvergenceError:
      pass
clean()
--------------------------------------------------------------------------

    Molecular point group: c1
  Charge       = 0
  Multiplicity = 1
  Basis Set: 6-311G
    Blend: 6-311G
  Basis Set: (6-311G AUX)
    Blend: CC-PVTZ-JKFIT
  @DF-RKS Final Energy:  -479.37625312542400
    Total Energy =                       -479.3762531254239434
    Molecular point group: c1
  Basis Set: 6-311G
    Blend: 6-311G
  Basis Set: (6-311G AUX)
    Blend: CC-PVTZ-JKFIT
  Basis Set: 6-311G
    Blend: 6-311G
  Basis Set: (6-311G AUX)
    Blend: CC-PVTZ-JKFIT
  @DF-RKS Final Energy:  -479.38002317204115
    Total Energy =                       -479.3800231720410920
  Basis Set: 6-311G
    Blend: 6-311G
  Basis Set: (6-311G AUX)
    Blend: CC-PVTZ-JKFIT
  Basis Set: 6-311G
    Blend: 6-311G
  @DF-RKS Final Energy:  -479.38041652227281
    Total Energy =                       -479.3804165222728102
  @DF-RKS Final Energy:  -479.38027768096953
    Total Energy =                       -479.3802776809695843
  @DF-RKS Final Energy:  -479.38050375916214
    Total Energy =                       -479.3805037591621385
  @DF-RKS Final Energy:  -479.38054577967142
    Total Energy =                       -479.3805457796713654
  @DF-RKS Final Energy:  -479.38053431378916
    Total Energy =                       -479.3805343137892123
  @DF-RKS Final Energy:  -479.38054578182755
    Total Energy =                       -479.3805457818274931
  @DF-RKS Final Energy:  -479.38055518030927
    Total Energy =                       -479.3805551803092726
  @DF-RKS Final Energy:  -479.38055645324420
    Total Energy =                       -479.3805564532441394
  @DF-RKS Final Energy:  -479.38055674138235
    Total Energy =                       -479.3805567413823496
  @DF-RKS Final Energy:  -479.38055886974780
    Total Energy =                       -479.3805588697478584
  Basis Set: (6-311G AUX)
    Blend: CC-PVTZ-JKFIT
  Basis Set: 6-311G
    Blend: 6-311G
  Basis Set: (6-311G AUX)
    Blend: CC-PVTZ-JKFIT
  @DF-RKS Final Energy:  -479.38055686651086
    Total Energy =                       -479.3805568665109149
  Basis Set: 6-311G
    Blend: 6-311G
  Basis Set: (6-311G AUX)
    Blend: CC-PVTZ-JKFIT
  Charge       = 0
  Multiplicity = 1
  Basis Set: 6-311G
    Blend: 6-311G
  Basis Set: (6-311G AUX)
    Blend: CC-PVTZ-JKFIT

    Orbital Energies [Eh]
    ---------------------

    Doubly Occupied:

       1A    -19.203151     2A    -14.470075     3A    -10.396380
       4A    -10.335074     5A    -10.328984     6A    -10.297041
       7A    -10.296466     8A    -10.295811     9A    -10.295115
      10A    -10.294629    11A    -10.289932    12A     -1.144713
      13A     -1.049245    14A     -0.965446    15A     -0.870583
      16A     -0.858821    17A     -0.839719    18A     -0.810294
      19A     -0.722322    20A     -0.714572    21A     -0.657539
      22A     -0.609542    23A     -0.585110    24A     -0.576851
      25A     -0.569479    26A     -0.541821    27A     -0.538453
      28A     -0.519628    29A     -0.514671    30A     -0.499103
      31A     -0.493343    32A     -0.476648    33A     -0.460420
      34A     -0.448416    35A     -0.445090    36A     -0.433066
      37A     -0.340840    38A     -0.336709    39A     -0.326219
      40A     -0.318548

  @DF-RKS Final Energy:  -479.38055903438521

   => Energetics <=

    Nuclear Repulsion Energy =            588.2266913514906719
    One-Electron Energy =               -1814.9156593346162936
    Two-Electron Energy =                 794.4025344422383341
    DFT Exchange-Correlation Energy =     -47.0812762507053435
    Empirical Dispersion Energy =          -0.0128492427925833
    VV10 Nonlocal Energy =                  0.0000000000000000
    Total Energy =                       -479.3805590343852145

  Dipole Moment: [D]
     X:    -0.8469      Y:     0.9132      Z:    -3.9643     Total:     4.1553

    Molecular point group: c1
  Basis Set: 6-311G
    Blend: 6-311G
  Basis Set: (6-311G AUX)
    Blend: CC-PVTZ-JKFIT

  -Total Gradient:
     Atom            X                  Y                   Z
    ------   -----------------  -----------------  -----------------
       1        0.000183488569     0.000302387591     0.000706164001
       2       -0.000393786421    -0.001092214005    -0.000463636225
       3        0.000556025080     0.000557846728     0.000668573538
       4       -0.000359144440    -0.000015953156    -0.000433562025
       5       -0.000010233708    -0.000012186366     0.000290589321
       6       -0.000008719933    -0.000041510309    -0.000009539675
       7        0.000045331007    -0.000026243501    -0.000000293084
       8       -0.000015577913     0.000024038096     0.000013798322
       9       -0.000032526229    -0.000017384026     0.000001668068
      10        0.000032320618    -0.000007330883     0.000008799499
      11       -0.000023571559     0.000019340470    -0.000009234389
      12        0.000086282162     0.000228252810    -0.000138866494
      13        0.000031065813     0.000128456448    -0.000393754284
      14       -0.000298382683    -0.000119716619    -0.000110235528
      15        0.000021561203     0.000323197709    -0.000039001334
      16        0.000252608961    -0.000175392011    -0.000182763051
      17        0.000034291487    -0.000012597710     0.000013320776
      18       -0.000003057860     0.000001057427    -0.000013268230
      19        0.000039042433     0.000055704361     0.000032213210
      20       -0.000078180737    -0.000008973154     0.000048169902
      21        0.000009432291    -0.000008066968    -0.000000824731
      22       -0.000008896372     0.000035492854    -0.000023629266

  **** Optimization is complete! (in 6 steps) ****
    Final optimized geometry and variables:
    Molecular point group: c1

    Geometry (in Angstrom), charge = 0, multiplicity = 1:

    C            1.999703028935    -0.149907218585    -0.029591197860
    N            0.857935976358     0.030318936190    -0.780360569249
    C           -0.420150929667     0.024528361593    -0.120846904264
    C           -1.044289392405    -1.183052559057     0.181896910239
    C            0.875854028543     0.400283867926    -2.196532590734
    C           -1.047491689557     1.231401334381     0.179698572108
    C           -2.297243281654    -1.182021211639     0.788461673054
    C           -2.930750701272     0.024061029471     1.084677381729
    C           -2.304508659566     1.230786751327     0.779644748505
    H           -0.536886961808    -2.109764997875    -0.044938822072
    H           -0.544421903241     2.162147877639    -0.045540407613
    C            3.319757575435    -0.023526806352    -0.751019811245
    O            1.946044159665    -0.406494946062     1.184566025571
    H           -0.077005320932     0.117216068613    -2.639640633658
    H            1.018809735947     1.475869163032    -2.341644074138
    H            1.663758848410    -0.131151732100    -2.727740901320
    H           -2.776723380137    -2.120223326690     1.031847569372
    H           -2.787959235607     2.168831276011     1.015767596333
    H            3.453756429356    -0.823678438934    -1.481818346696
    H            3.408473895054     0.929166005096    -1.275272460715
    H           -3.904307852916     0.023101546644     1.555374434132
    H            4.107722434514    -0.097336864947    -0.008168857933

*** Psi4 exiting successfully. Buy a developer a beer!
