                               Psi4 1.3.2 release

  ==> Input File <==

--------------------------------------------------------------------------
molecule {
0 1
C -1.108160741991 -0.846220311080 -0.049887143664
C -1.287816634546 0.536785197559 -0.010129464412
C 1.108186680801 0.846243919977 0.049888336769
C -0.179613507368 1.382988007785 0.039768414023
C 1.287776331738 -0.536784188324 0.010127926615
C 0.179626307596 -1.383001501097 -0.039767660926
H -1.971594386647 -1.505542007322 -0.088765799713
H -2.291224967962 0.954878606953 -0.018017144370
H -0.319550564102 2.460522732324 0.070742757056
H 2.291168979326 -0.954922793134 0.018013479961
H 0.319543557577 -2.460554227149 -0.070743917579
H 1.971676001341 1.505485227007 0.088765761837
}
memory 8.333333333333334GB
set_num_threads(1)
psi4_io.set_default_path("/scratch/bdw2292/Psi4-21_Index_0-farH_in17")
set maxiter 500
set freeze_core True
set PROPERTIES_ORIGIN ["COM"]
set cubeprop_tasks ['esp']
E, wfn = properties('mp2/aug-cc-pVTZ',properties=['dipole'],return_wfn=True)
cubeprop(wfn)
fchk(wfn, "21_Index_0-esp.fchk")
oeprop(wfn,"GRID_ESP","WIBERG_LOWDIN_INDICES","MULLIKEN_CHARGES")
clean()
--------------------------------------------------------------------------

    Molecular point group: c1
  Charge       = 0
  Multiplicity = 1
  Basis Set: AUG-CC-PVTZ
    Blend: AUG-CC-PVTZ
  Basis Set: (AUG-CC-PVTZ AUX)
    Blend: AUG-CC-PVTZ-JKFIT

    Orbital Energies [Eh]
    ---------------------

    Doubly Occupied:

       1A    -11.237663     2A    -11.237091     3A    -11.237090
       4A    -11.235854     5A    -11.235853     6A    -11.235251
       7A     -1.149607     8A     -1.014042     9A     -1.014027
      10A     -0.823082    11A     -0.823060    12A     -0.707846
      13A     -0.642348    14A     -0.618888    15A     -0.586938
      16A     -0.586926    17A     -0.502056    18A     -0.494247
      19A     -0.494222    20A     -0.336798    21A     -0.336789

  @DF-RHF Final Energy:  -230.78054812678323

   => Energetics <=

    Nuclear Repulsion Energy =            203.3594833057225628
    One-Electron Energy =                -713.1807114762655146
    Two-Electron Energy =                 279.0406800437597212
    Total Energy =                       -230.7805481267832306
  Basis Set: (AUG-CC-PVTZ AUX)
    Blend: AUG-CC-PVTZ-RI
    Molecular point group: c1

    Geometry (in Angstrom), charge = 0, multiplicity = 1:

       Center              X                  Y                   Z               Mass
    ------------   -----------------  -----------------  -----------------  -----------------
         C           -1.108160741991    -0.846220311080    -0.049887143664    12.000000000000
         C           -1.287816634546     0.536785197559    -0.010129464412    12.000000000000
         C            1.108186680801     0.846243919977     0.049888336769    12.000000000000
         C           -0.179613507368     1.382988007785     0.039768414023    12.000000000000
         C            1.287776331738    -0.536784188324     0.010127926615    12.000000000000
         C            0.179626307596    -1.383001501097    -0.039767660926    12.000000000000
         H           -1.971594386647    -1.505542007322    -0.088765799713     1.007825032230
         H           -2.291224967962     0.954878606953    -0.018017144370     1.007825032230
         H           -0.319550564102     2.460522732324     0.070742757056     1.007825032230
         H            2.291168979326    -0.954922793134     0.018013479961     1.007825032230
         H            0.319543557577    -2.460554227149    -0.070743917579     1.007825032230
         H            1.971676001341     1.505485227007     0.088765761837     1.007825032230

  Basis Set: AUG-CC-PVTZ
    Blend: AUG-CC-PVTZ
  Basis Set: (AUG-CC-PVTZ AUX)
    Blend: AUG-CC-PVTZ-JKFIT
	 Reference Energy          =    -230.7805481267832306 [Eh]
	 Singles Energy            =      -0.0000000000000000 [Eh]
	 Same-Spin Energy          =      -0.2400507317845621 [Eh]
	 Opposite-Spin Energy      =      -0.7237143279105004 [Eh]
	 Correlation Energy        =      -0.9637650596950624 [Eh]
	 Total Energy              =    -231.7443131864782799 [Eh]

	 ================> DF-SCS-MP2 Energies <==================
	-----------------------------------------------------------
	 SCS Same-Spin Scale       =       0.3333333333333333 [-]
	 SCS Opposite-Spin Scale   =       1.2000000000000000 [-]
	 SCS Same-Spin Energy      =      -0.0800169105948540 [Eh]
	 SCS Opposite-Spin Energy  =      -0.8684571934926004 [Eh]
	 SCS Correlation Energy    =      -0.9484741040874545 [Eh]
	 SCS Total Energy          =    -231.7290222308706973 [Eh]
	-----------------------------------------------------------

  Dipole Moment: [D]
     X:     0.0000      Y:    -0.0000      Z:    -0.0000     Total:     0.0000

  Basis Set: AUG-CC-PVTZ
    Blend: AUG-CC-PVTZ

  Mulliken Charges: (a.u.)
   Center  Symbol    Alpha    Beta     Spin     Total
       1     C     3.21821  3.21821  0.00000 -0.43642
       2     C     3.21851  3.21851  0.00000 -0.43702
       3     C     3.21847  3.21847  0.00000 -0.43694
       4     C     3.21833  3.21833  0.00000 -0.43667
       5     C     3.21826  3.21826  0.00000 -0.43652
       6     C     3.21849  3.21849  0.00000 -0.43699
       7     H     0.28177  0.28177  0.00000  0.43647
       8     H     0.28139  0.28139  0.00000  0.43722
       9     H     0.28187  0.28187  0.00000  0.43626
      10     H     0.28178  0.28178  0.00000  0.43644
      11     H     0.28154  0.28154  0.00000  0.43692
      12     H     0.28137  0.28137  0.00000  0.43725

   Total alpha = 21.00000, Total beta = 21.00000, Total charge =  0.00000

*** Psi4 exiting successfully. Buy a developer a beer!
