                               Psi4 1.3.2 release

  ==> Input File <==

--------------------------------------------------------------------------
molecule {
0 1
 C   -1.072100   -0.839100   -0.048900
 C   -1.245900    0.527000   -0.009600
 C    1.078700    0.826500    0.048600
 C   -0.177500    1.397800    0.040300
 C    1.246200   -0.540500    0.009100
 C    0.180800   -1.413300   -0.040700
 H   -1.929300   -1.477000   -0.087000
 H   -2.249300    0.962200   -0.016900
 H   -0.324900    2.471300    0.070900
 H    2.246100   -0.937200    0.017600
 H    0.315000   -2.496600   -0.072000
 H    1.932300    1.518800    0.088400
}
set {
  geom_maxiter 400
  g_convergence GAU
  dynamic_level 1
}
memory 8.333333333333334GB
set_num_threads(1)
psi4_io.set_default_path("/scratch/bdw2292/Psi4-21_Index_0-farH_in17")
for _ in range(1):
  try:
    set opt_coordinates both
    optimize('mp2/6-31G*')
    break
  except OptimizationConvergenceError:
    break
  else:
    try:
      set opt_coordinates cartesian
      optimize('mp2/6-31G*')
      break
    except OptimizationConvergenceError:
      pass
clean()
--------------------------------------------------------------------------

    Molecular point group: c1
  Charge       = 0
  Multiplicity = 1
  Basis Set: 6-31G*
    Blend: 6-31G*
  Basis Set: (6-31G* AUX)
    Blend: CC-PVDZ-JKFIT
  @DF-RHF Final Energy:  -230.69849204267712
    Total Energy =                       -230.6984920426771168
  Basis Set: (6-31G* AUX)
    Blend: CC-PVDZ-RI
    Molecular point group: c1
  Basis Set: 6-31G*
    Blend: 6-31G*
  Basis Set: (6-31G* AUX)
    Blend: CC-PVDZ-JKFIT
  Basis Set: (6-31G* AUX)
    Blend: CC-PVDZ-JKFIT
	 Reference Energy          =    -230.6984920426771168 [Eh]
	 Singles Energy            =      -0.0000000000000000 [Eh]
	 Same-Spin Energy          =      -0.2062937856299578 [Eh]
	 Opposite-Spin Energy      =      -0.5767773476383299 [Eh]
	 Correlation Energy        =      -0.7830711332682877 [Eh]
	 Total Energy              =    -231.4815631759454106 [Eh]
	 SCS Total Energy          =    -231.4593894550530990 [Eh]
  @DF-RHF Final Energy:  -230.70124432745519
    Total Energy =                       -230.7012443274551856
  @DF-RHF Final Energy:  -230.70167686549041
    Total Energy =                       -230.7016768654904126
  Charge       = 0
  Multiplicity = 1
  Basis Set: 6-31G*
    Blend: 6-31G*
  Basis Set: (6-31G* AUX)
    Blend: CC-PVDZ-JKFIT

    Orbital Energies [Eh]
    ---------------------

    Doubly Occupied:

       1A    -11.234048     2A    -11.233493     3A    -11.233492
       4A    -11.232298     5A    -11.232297     6A    -11.231720
       7A     -1.142616     8A     -1.007697     9A     -1.007683
      10A     -0.816835    11A     -0.816813    12A     -0.701672
      13A     -0.637792    14A     -0.610889    15A     -0.581244
      16A     -0.581232    17A     -0.494619    18A     -0.488343
      19A     -0.488318    20A     -0.329398    21A     -0.329390

  @DF-RHF Final Energy:  -230.70173508148872

   => Energetics <=

    Nuclear Repulsion Energy =            203.3594833057231881
    One-Electron Energy =                -713.2586593429759887
    Two-Electron Energy =                 279.1974409557640797
    Total Energy =                       -230.7017350814887209

  Dipole Moment: [D]
     X:     0.0000      Y:    -0.0000      Z:    -0.0000     Total:     0.0000

  Basis Set: (6-31G* AUX)
    Blend: CC-PVDZ-RI
    Molecular point group: c1
  Basis Set: 6-31G*
    Blend: 6-31G*
  Basis Set: (6-31G* AUX)
    Blend: CC-PVDZ-JKFIT
  Basis Set: (6-31G* AUX)
    Blend: CC-PVDZ-JKFIT
	 Reference Energy          =    -230.7017350814887209 [Eh]
	 Singles Energy            =      -0.0000000000000000 [Eh]
	 Same-Spin Energy          =      -0.2061956108686603 [Eh]
	 Opposite-Spin Energy      =      -0.5784730572097396 [Eh]
	 Correlation Energy        =      -0.7846686680783999 [Eh]
	 Total Energy              =    -231.4864037495671312 [Eh]

	 ================> DF-SCS-MP2 Energies <==================
	-----------------------------------------------------------
	 SCS Same-Spin Scale       =       0.3333333333333333 [-]
	 SCS Opposite-Spin Scale   =       1.2000000000000000 [-]
	 SCS Same-Spin Energy      =      -0.0687318702895534 [Eh]
	 SCS Opposite-Spin Energy  =      -0.6941676686516876 [Eh]
	 SCS Correlation Energy    =      -0.7628995389412410 [Eh]
	 SCS Total Energy          =    -231.4646346204299618 [Eh]
	-----------------------------------------------------------

  -Total Gradient:
     Atom            X                  Y                   Z
    ------   -----------------  -----------------  -----------------
       1        0.000026620866     0.000036058826     0.000002437881
       2       -0.000000403930    -0.000005862501    -0.000001026939
       3       -0.000008875335    -0.000004142340    -0.000001110908
       4        0.000010929973    -0.000032625917     0.000000132721
       5       -0.000040074102     0.000002151046    -0.000000083546
       6        0.000009330528     0.000030724482     0.000000464213
       7       -0.000016212821    -0.000003014124    -0.000000659637
       8       -0.000011295157    -0.000017565524    -0.000000559151
       9        0.000004033380    -0.000022618062    -0.000000913960
      10        0.000008571845     0.000012185360     0.000000338456
      11       -0.000004118427     0.000009955278     0.000000455395
      12        0.000021493182    -0.000005246527     0.000000525475

  **** Optimization is complete! (in 4 steps) ****
    Final optimized geometry and variables:
    Molecular point group: c1

    Geometry (in Angstrom), charge = 0, multiplicity = 1:

    C           -1.108160741991    -0.846220311080    -0.049887143664
    C           -1.287816634546     0.536785197559    -0.010129464412
    C            1.108186680801     0.846243919977     0.049888336769
    C           -0.179613507368     1.382988007785     0.039768414023
    C            1.287776331738    -0.536784188324     0.010127926615
    C            0.179626307596    -1.383001501097    -0.039767660926
    H           -1.971594386647    -1.505542007322    -0.088765799713
    H           -2.291224967962     0.954878606953    -0.018017144370
    H           -0.319550564102     2.460522732324     0.070742757056
    H            2.291168979326    -0.954922793134     0.018013479961
    H            0.319543557577    -2.460554227149    -0.070743917579
    H            1.971676001341     1.505485227007     0.088765761837

*** Psi4 exiting successfully. Buy a developer a beer!
