                               Psi4 1.3.2 release

  ==> Input File <==

--------------------------------------------------------------------------
molecule {
0 1
C -1.108160741991 -0.846220311080 -0.049887143664
C -1.287816634546 0.536785197559 -0.010129464412
C 1.108186680801 0.846243919977 0.049888336769
C -0.179613507368 1.382988007785 0.039768414023
C 1.287776331738 -0.536784188324 0.010127926615
C 0.179626307596 -1.383001501097 -0.039767660926
H -1.971594386647 -1.505542007322 -0.088765799713
H -2.291224967962 0.954878606953 -0.018017144370
H -0.319550564102 2.460522732324 0.070742757056
H 2.291168979326 -0.954922793134 0.018013479961
H 0.319543557577 -2.460554227149 -0.070743917579
H 1.971676001341 1.505485227007 0.088765761837
}
memory 8.333333333333334GB
set_num_threads(1)
psi4_io.set_default_path("/scratch/bdw2292/Psi4-21_Index_0-farH_in17")
set freeze_core True
set PROPERTIES_ORIGIN ["COM"]
set cubeprop_tasks ['esp']
E, wfn = properties('mp2/6-311G**',properties=['dipole'],return_wfn=True)
cubeprop(wfn)
fchk(wfn, "21_Index_0-dma.fchk")
clean()
--------------------------------------------------------------------------

    Molecular point group: c1
  Charge       = 0
  Multiplicity = 1
  Basis Set: 6-311G**
    Blend: 6-311G**
  Basis Set: (6-311G** AUX)
    Blend: CC-PVTZ-JKFIT

    Orbital Energies [Eh]
    ---------------------

    Doubly Occupied:

       1A    -11.235515     2A    -11.234947     3A    -11.234946
       4A    -11.233719     5A    -11.233719     6A    -11.233117
       7A     -1.147891     8A     -1.012484     9A     -1.012469
      10A     -0.821407    11A     -0.821385    12A     -0.706461
      13A     -0.640887    14A     -0.616920    15A     -0.585698
      16A     -0.585686    17A     -0.499611    18A     -0.492562
      19A     -0.492537    20A     -0.334594    21A     -0.334585

  @DF-RHF Final Energy:  -230.75286283616390

   => Energetics <=

    Nuclear Repulsion Energy =            203.3594833057225628
    One-Electron Energy =                -713.2024109846461215
    Two-Electron Energy =                 279.0900648427596593
    Total Energy =                       -230.7528628361638994
  Basis Set: (6-311G** AUX)
    Blend: CC-PVTZ-RI
    Molecular point group: c1

    Geometry (in Angstrom), charge = 0, multiplicity = 1:

       Center              X                  Y                   Z               Mass
    ------------   -----------------  -----------------  -----------------  -----------------
         C           -1.108160741991    -0.846220311080    -0.049887143664    12.000000000000
         C           -1.287816634546     0.536785197559    -0.010129464412    12.000000000000
         C            1.108186680801     0.846243919977     0.049888336769    12.000000000000
         C           -0.179613507368     1.382988007785     0.039768414023    12.000000000000
         C            1.287776331738    -0.536784188324     0.010127926615    12.000000000000
         C            0.179626307596    -1.383001501097    -0.039767660926    12.000000000000
         H           -1.971594386647    -1.505542007322    -0.088765799713     1.007825032230
         H           -2.291224967962     0.954878606953    -0.018017144370     1.007825032230
         H           -0.319550564102     2.460522732324     0.070742757056     1.007825032230
         H            2.291168979326    -0.954922793134     0.018013479961     1.007825032230
         H            0.319543557577    -2.460554227149    -0.070743917579     1.007825032230
         H            1.971676001341     1.505485227007     0.088765761837     1.007825032230

  Basis Set: 6-311G**
    Blend: 6-311G**
  Basis Set: (6-311G** AUX)
    Blend: CC-PVTZ-JKFIT
	 Reference Energy          =    -230.7528628361638994 [Eh]
	 Singles Energy            =      -0.0000000000000000 [Eh]
	 Same-Spin Energy          =      -0.2144563850719467 [Eh]
	 Opposite-Spin Energy      =      -0.6103193821873381 [Eh]
	 Correlation Energy        =      -0.8247757672592848 [Eh]
	 Total Energy              =    -231.5776386034231962 [Eh]

	 ================> DF-SCS-MP2 Energies <==================
	-----------------------------------------------------------
	 SCS Same-Spin Scale       =       0.3333333333333333 [-]
	 SCS Opposite-Spin Scale   =       1.2000000000000000 [-]
	 SCS Same-Spin Energy      =      -0.0714854616906489 [Eh]
	 SCS Opposite-Spin Energy  =      -0.7323832586248057 [Eh]
	 SCS Correlation Energy    =      -0.8038687203154546 [Eh]
	 SCS Total Energy          =    -231.5567315564793489 [Eh]
	-----------------------------------------------------------

  Dipole Moment: [D]
     X:     0.0000      Y:    -0.0000      Z:    -0.0000     Total:     0.0000

  Basis Set: 6-311G**
    Blend: 6-311G**
*** Psi4 exiting successfully. Buy a developer a beer!
