                               Psi4 1.3.2 release

  ==> Input File <==

--------------------------------------------------------------------------
molecule {
0 1
C          3.85900        1.63490       -3.60150
C          4.03720        0.37270       -3.08890
C          3.53340        1.16240       -0.86330
C          3.87280        0.15870       -1.73820
C          3.35530        2.44010       -1.39440
C          3.52170        2.63130       -2.72740
H          3.98460        1.81640       -4.66570
H          4.30510       -0.43950       -3.75400
H          4.01560       -0.83530       -1.35160
H          3.08980        3.27710       -0.76290
H          3.38170        3.62370       -3.13930
H          3.41510        0.97860        0.14530
}
memory 100GB
set_num_threads(12)
psi4_io.set_default_path("/scratch/bdw2292/Psi4-farH_in17")
set maxiter 500
set freeze_core True
set PROPERTIES_ORIGIN ["COM"]
set cubeprop_tasks ['esp']
E, wfn = properties('hf/MINIX',properties=['dipole'],return_wfn=True)
cubeprop(wfn)
fchk(wfn, "farH_in17-esp_frag.fchk")
oeprop(wfn,"WIBERG_LOWDIN_INDICES","MULLIKEN_CHARGES")
clean()
--------------------------------------------------------------------------

    Molecular point group: c1

    Geometry (in Angstrom), charge = 0, multiplicity = 1:

       Center              X                  Y                   Z               Mass
    ------------   -----------------  -----------------  -----------------  -----------------
         C            0.162271920070     0.234613450357    -1.364404787844    12.000000000000
         C            0.340471920070    -1.027586549643    -0.851804787844    12.000000000000
         C           -0.163328079930    -0.237886549643     1.373795212156    12.000000000000
         C            0.176071920070    -1.241586549643     0.498895212156    12.000000000000
         C           -0.341428079930     1.039813450357     0.842695212156    12.000000000000
         C           -0.175028079930     1.231013450357    -0.490304787844    12.000000000000
         H            0.287871920070     0.416113450357    -2.428604787844     1.007825032230
         H            0.608371920070    -1.839786549643    -1.516904787844     1.007825032230
         H            0.318871920070    -2.235586549643     0.885495212156     1.007825032230
         H           -0.606928079930     1.876813450357     1.474195212156     1.007825032230
         H           -0.315028079930     2.223413450357    -0.902204787844     1.007825032230
         H           -0.281628079930    -0.421686549643     2.382395212156     1.007825032230

  Charge       = 0
  Multiplicity = 1
  Basis Set: MINIX
    Blend: MINIX
  Basis Set: (MINIX AUX)
    Blend: DEF2-SVP-JKFIT

    Orbital Energies [Eh]
    ---------------------

    Doubly Occupied:

       1A    -11.180048     2A    -11.178986     3A    -11.178379
       4A    -11.177211     5A    -11.175743     6A    -11.174810
       7A     -1.175351     8A     -1.031947     9A     -1.027832
      10A     -0.834176    11A     -0.824234    12A     -0.723560
      13A     -0.639943    14A     -0.625299    15A     -0.599911
      16A     -0.588023    17A     -0.533427    18A     -0.499519
      19A     -0.477839    20A     -0.357368    21A     -0.355122

  @DF-RHF Final Energy:  -229.11340178169945

   => Energetics <=

    Nuclear Repulsion Energy =            206.4265152233834613
    One-Electron Energy =                -716.3623751425059254
    Two-Electron Energy =                 280.8224581374229842
    Total Energy =                       -229.1134017816994515

  Dipole Moment: [D]
     X:     0.0129      Y:     0.0128      Z:    -0.1039     Total:     0.1055

  Basis Set: MINIX
    Blend: MINIX

  Mulliken Charges: (a.u.)
   Center  Symbol    Alpha    Beta     Spin     Total
       1     C     3.06992  3.06992  0.00000 -0.13984
       2     C     3.06970  3.06970  0.00000 -0.13940
       3     C     3.07361  3.07361  0.00000 -0.14722
       4     C     3.06964  3.06964  0.00000 -0.13929
       5     C     3.06886  3.06886  0.00000 -0.13772
       6     C     3.07183  3.07183  0.00000 -0.14367
       7     H     0.42827  0.42827  0.00000  0.14346
       8     H     0.42948  0.42948  0.00000  0.14104
       9     H     0.43042  0.43042  0.00000  0.13915
      10     H     0.42877  0.42877  0.00000  0.14246
      11     H     0.43069  0.43069  0.00000  0.13861
      12     H     0.42880  0.42880  0.00000  0.14240

   Total alpha = 21.00000, Total beta = 21.00000, Total charge =  0.00000

*** Psi4 exiting successfully. Buy a developer a beer!
