                               Psi4 1.3.2 release

  ==> Input File <==

--------------------------------------------------------------------------
molecule {
0 1
C         -1.67290       -0.44230        0.21710
N         -2.88880       -1.10540       -0.07100
C         -0.45250       -0.99130       -0.17810
C          0.81870        0.79670        0.73960
C          0.76840       -0.39010        0.07510
C         -0.38080        1.37730        1.15150
C         -1.58120        0.75890        0.88810
H         -0.49600       -1.93920       -0.70890
H          1.69470       -0.88110       -0.25600
H         -0.33620        2.31250        1.67300
H         -2.48410        1.26410        1.24600
H         -2.87930       -1.96260       -0.55510
H         -3.74450       -0.70970        0.21260
H          1.72230        1.25580        0.93390
}
memory 100GB
set_num_threads(12)
psi4_io.set_default_path("/scratch/bdw2292/Psi4-farH_in17")
set maxiter 500
set freeze_core True
set PROPERTIES_ORIGIN ["COM"]
set cubeprop_tasks ['esp']
E, wfn = properties('hf/MINIX',properties=['dipole'],return_wfn=True)
cubeprop(wfn)
fchk(wfn, "farH_in17-esp_frag.fchk")
oeprop(wfn,"WIBERG_LOWDIN_INDICES","MULLIKEN_CHARGES")
clean()
--------------------------------------------------------------------------

    Molecular point group: c1

    Geometry (in Angstrom), charge = 0, multiplicity = 1:

       Center              X                  Y                   Z               Mass
    ------------   -----------------  -----------------  -----------------  -----------------
         C           -0.845137223522    -0.411846211155    -0.172881078066    12.000000000000
         N           -2.061037223522    -1.074946211155    -0.460981078066    14.003074004430
         C            0.375262776478    -0.960846211155    -0.568081078066    12.000000000000
         C            1.646462776478     0.827153788845     0.349618921934    12.000000000000
         C            1.596162776478    -0.359646211155    -0.314881078066    12.000000000000
         C            0.446962776478     1.407753788845     0.761518921934    12.000000000000
         C           -0.753437223522     0.789353788845     0.498118921934    12.000000000000
         H            0.331762776478    -1.908746211155    -1.098881078066     1.007825032230
         H            2.522462776478    -0.850646211155    -0.645981078066     1.007825032230
         H            0.491562776478     2.342953788845     1.283018921934     1.007825032230
         H           -1.656337223522     1.294553788845     0.856018921934     1.007825032230
         H           -2.051537223522    -1.932146211155    -0.945081078066     1.007825032230
         H           -2.916737223522    -0.679246211155    -0.177381078066     1.007825032230
         H            2.550062776478     1.286253788845     0.543918921934     1.007825032230

  Charge       = 0
  Multiplicity = 1
  Basis Set: MINIX
    Blend: MINIX
  Basis Set: (MINIX AUX)
    Blend: DEF2-SVP-JKFIT

    Orbital Energies [Eh]
    ---------------------

    Doubly Occupied:

       1A    -15.395381     2A    -11.235522     3A    -11.172068
       4A    -11.171270     5A    -11.158276     6A    -11.154863
       7A    -11.152997     8A     -1.205927     9A     -1.132958
      10A     -1.014574    11A     -0.996660    12A     -0.827974
      13A     -0.812302    14A     -0.708908    15A     -0.685110
      16A     -0.647081    17A     -0.599372    18A     -0.591070
      19A     -0.574765    20A     -0.547602    21A     -0.503878
      22A     -0.469722    23A     -0.450988    24A     -0.346983
      25A     -0.295488

  @DF-RHF Final Energy:  -283.76293157907872

   => Energetics <=

    Nuclear Repulsion Energy =            272.8719710515762813
    One-Electron Energy =                -923.5663643623820462
    Two-Electron Energy =                 366.9314617317269835
    Total Energy =                       -283.7629315790787246

  Dipole Moment: [D]
     X:    -1.2347      Y:    -0.6491      Z:    -0.2689     Total:     1.4206

  Basis Set: MINIX
    Blend: MINIX

  Mulliken Charges: (a.u.)
   Center  Symbol    Alpha    Beta     Spin     Total
       1     C     2.94589  2.94589  0.00000  0.10823
       2     N     3.75857  3.75857  0.00000 -0.51713
       3     C     3.07958  3.07958  0.00000 -0.15916
       4     C     3.08602  3.08602  0.00000 -0.17204
       5     C     3.06551  3.06551  0.00000 -0.13103
       6     C     3.06392  3.06392  0.00000 -0.12784
       7     C     3.08263  3.08263  0.00000 -0.16525
       8     H     0.43713  0.43713  0.00000  0.12573
       9     H     0.42958  0.42958  0.00000  0.14085
      10     H     0.43018  0.43018  0.00000  0.13964
      11     H     0.43485  0.43485  0.00000  0.13031
      12     H     0.37642  0.37642  0.00000  0.24717
      13     H     0.37680  0.37680  0.00000  0.24641
      14     H     0.43294  0.43294  0.00000  0.13412

   Total alpha = 25.00000, Total beta = 25.00000, Total charge =  0.00000

*** Psi4 exiting successfully. Buy a developer a beer!
