                               Psi4 1.5 release

  ==> Input File <==

--------------------------------------------------------------------------
molecule {
0 1
C         -0.79870       -0.46170        0.40860
N         -2.06780       -0.69620        0.96370
C         -3.34440       -0.17000        0.77570
C         -4.40600       -0.53170        1.53860
H         -2.03740       -1.38700        1.72220
C         -3.57440        0.75960       -0.34700
C         -5.84450       -0.19140        1.51590
N         -5.46230       -1.60290        3.28930
C         -4.21840       -1.48060        2.70320
C         -6.41730       -0.86260        2.60460
C         -3.69970        2.13940       -0.11620
C         -3.69150        0.26880       -1.65490
C         -3.94510        3.01080       -1.17870
C         -3.93630        1.14370       -2.71460
C         -4.06530        2.51180       -2.47540
C          0.17590       -1.45560        0.57390
C         -0.43520        0.64590       -0.34920
C          1.46150       -1.33920        0.02120
C          0.85060        0.76730       -0.90610
C          1.83080       -0.22030       -0.72870
H         -5.63160       -2.18680        4.09440
O         -3.18700       -2.02820        3.05110
H         -3.60970        2.53610        0.89250
H         -3.59150       -0.79670       -1.84880
H         -4.05260        4.07670       -0.99460
H         -4.03330        0.75700       -3.72580
H         -4.26760        3.18990       -3.30100
H         -0.06130       -2.35900        1.13380
H         -1.12070        1.46840       -0.50880
H          2.13470       -2.17740        0.17120
H          1.05380        1.68270       -1.45390
H         -6.32830        0.41660        0.83670
H         -7.41520       -0.81340        2.86300
H          2.77610       -0.12500       -1.13150
}
memory 49GB
set_num_threads(12)
psi4_io.set_default_path("/scratch/bdw2292/Psi4-farH_in17")
set maxiter 500
set freeze_core True
set PROPERTIES_ORIGIN ["COM"]
set cubeprop_tasks ['esp']
set basis MINIX
E, wfn = properties('hf',properties=['dipole'],return_wfn=True)
cubeprop(wfn)
fchk(wfn, "farH_in17-esp_frag.fchk")
oeprop(wfn,"WIBERG_LOWDIN_INDICES","MULLIKEN_CHARGES")
clean()
--------------------------------------------------------------------------

    Molecular point group: c1

    Geometry (in Angstrom), charge = 0, multiplicity = 1:

       Center              X                  Y                   Z               Mass
    ------------   -----------------  -----------------  -----------------  -----------------
         C            1.954275461910    -0.439154763716     0.015073120110    12.000000000000
         N            0.685175461910    -0.673654763716     0.570173120110    14.003074004430
         C           -0.591424538090    -0.147454763716     0.382173120110    12.000000000000
         C           -1.653024538090    -0.509154763716     1.145073120110    12.000000000000
         H            0.715575461910    -1.364454763716     1.328673120110     1.007825032230
         C           -0.821424538090     0.782145236284    -0.740526879890    12.000000000000
         C           -3.091524538090    -0.168854763716     1.122373120110    12.000000000000
         N           -2.709324538090    -1.580354763716     2.895773120110    14.003074004430
         C           -1.465424538090    -1.458054763716     2.309673120110    12.000000000000
         C           -3.664324538090    -0.840054763716     2.211073120110    12.000000000000
         C           -0.946724538090     2.161945236284    -0.509726879890    12.000000000000
         C           -0.938524538090     0.291345236284    -2.048426879890    12.000000000000
         C           -1.192124538090     3.033345236284    -1.572226879890    12.000000000000
         C           -1.183324538090     1.166245236284    -3.108126879890    12.000000000000
         C           -1.312324538090     2.534345236284    -2.868926879890    12.000000000000
         C            2.928875461910    -1.433054763716     0.180373120110    12.000000000000
         C            2.317775461910     0.668445236284    -0.742726879890    12.000000000000
         C            4.214475461910    -1.316654763716    -0.372326879890    12.000000000000
         C            3.603575461910     0.789845236284    -1.299626879890    12.000000000000
         C            4.583775461910    -0.197754763716    -1.122226879890    12.000000000000
         H           -2.878624538090    -2.164254763716     3.700873120110     1.007825032230
         O           -0.434024538090    -2.005654763716     2.657573120110    15.994914619570
         H           -0.856724538090     2.558645236284     0.498973120110     1.007825032230
         H           -0.838524538090    -0.774154763716    -2.242326879890     1.007825032230
         H           -1.299624538090     4.099245236284    -1.388126879890     1.007825032230
         H           -1.280324538090     0.779545236284    -4.119326879890     1.007825032230
         H           -1.514624538090     3.212445236284    -3.694526879890     1.007825032230
         H            2.691675461910    -2.336454763716     0.740273120110     1.007825032230
         H            1.632275461910     1.490945236284    -0.902326879890     1.007825032230
         H            4.887675461910    -2.154854763716    -0.222326879890     1.007825032230
         H            3.806775461910     1.705245236284    -1.847426879890     1.007825032230
         H           -3.575324538090     0.439145236284     0.443173120110     1.007825032230
         H           -4.662224538090    -0.790854763716     2.469473120110     1.007825032230
         H            5.529075461910    -0.102454763716    -1.525026879890     1.007825032230

  Charge       = 0
  Multiplicity = 1
  Basis Set: MINIX
    Blend: MINIX
  Basis Set: (MINIX AUX)
    Blend: DEF2-UNIVERSAL-JKFIT

    Orbital Energies [Eh]
    ---------------------

    Doubly Occupied:

       1A    -20.281517     2A    -15.458802     3A    -15.447914
       4A    -11.316147     5A    -11.269031     6A    -11.244491
       7A    -11.212388     8A    -11.205610     9A    -11.188772
      10A    -11.188159    11A    -11.187378    12A    -11.185866
      13A    -11.184749    14A    -11.177338    15A    -11.176234
      16A    -11.168960    17A    -11.166214    18A    -11.165251
      19A    -11.157670    20A    -11.152169    21A     -1.382546
      22A     -1.260415    23A     -1.257819    24A     -1.174819
      25A     -1.147497    26A     -1.085276    27A     -1.035093
      28A     -1.029139    29A     -1.014706    30A     -1.011591
      31A     -0.970039    32A     -0.899828    33A     -0.840072
      34A     -0.836062    35A     -0.829251    36A     -0.808272
      37A     -0.792178    38A     -0.756419    39A     -0.723425
      40A     -0.701062    41A     -0.692054    42A     -0.671116
      43A     -0.660322    44A     -0.640559    45A     -0.632900
      46A     -0.611062    47A     -0.609575    48A     -0.606059
      49A     -0.596380    50A     -0.592161    51A     -0.581173
      52A     -0.576179    53A     -0.564008    54A     -0.554765
      55A     -0.543356    56A     -0.527978    57A     -0.505936
      58A     -0.503104    59A     -0.499164    60A     -0.485703
      61A     -0.478373    62A     -0.456091    63A     -0.398704
      64A     -0.384310    65A     -0.358706    66A     -0.355285
      67A     -0.343150    68A     -0.322479    69A     -0.251324

  @DF-RHF Final Energy:  -829.88824004304763

   => Energetics <=

    Nuclear Repulsion Energy =           1414.3216345495029600
    One-Electron Energy =               -3936.2354420479646251
    Two-Electron Energy =                1692.0255674554141478
    Total Energy =                       -829.8882400430475172

  Dipole Moment: [D]
     X:    -1.8390      Y:     1.1373      Z:    -0.9593     Total:     2.3655

  Basis Set: MINIX
    Blend: MINIX

  Mulliken Charges: (a.u.)
   Center  Symbol    Alpha    Beta     Spin     Total
       1     C     2.94872  2.94872  0.00000  0.10257
       2     N     3.69696  3.69696  0.00000 -0.39391
       3     C     2.91939  2.91939  0.00000  0.16122
       4     C     3.04809  3.04809  0.00000 -0.09618
       5     H     0.34410  0.34410  0.00000  0.31179
       6     C     3.01185  3.01185  0.00000 -0.02369
       7     C     3.08855  3.08855  0.00000 -0.17709
       8     N     3.70708  3.70708  0.00000 -0.41417
       9     C     2.80390  2.80390  0.00000  0.39220
      10     C     3.01310  3.01310  0.00000 -0.02621
      11     C     3.06361  3.06361  0.00000 -0.12721
      12     C     3.06133  3.06133  0.00000 -0.12266
      13     C     3.07008  3.07008  0.00000 -0.14015
      14     C     3.06885  3.06885  0.00000 -0.13769
      15     C     3.06774  3.06774  0.00000 -0.13548
      16     C     3.07336  3.07336  0.00000 -0.14672
      17     C     3.07713  3.07713  0.00000 -0.15427
      18     C     3.06334  3.06334  0.00000 -0.12668
      19     C     3.06166  3.06166  0.00000 -0.12333
      20     C     3.08251  3.08251  0.00000 -0.16502
      21     H     0.35949  0.35949  0.00000  0.28103
      22     O     4.23277  4.23277  0.00000 -0.46553
      23     H     0.42623  0.42623  0.00000  0.14754
      24     H     0.42555  0.42555  0.00000  0.14890
      25     H     0.42815  0.42815  0.00000  0.14370
      26     H     0.42776  0.42776  0.00000  0.14448
      27     H     0.42845  0.42845  0.00000  0.14309
      28     H     0.43040  0.43040  0.00000  0.13920
      29     H     0.42643  0.42643  0.00000  0.14713
      30     H     0.42937  0.42937  0.00000  0.14126
      31     H     0.43016  0.43016  0.00000  0.13969
      32     H     0.42903  0.42903  0.00000  0.14193
      33     H     0.42468  0.42468  0.00000  0.15063
      34     H     0.43018  0.43018  0.00000  0.13964

   Total alpha = 69.00000, Total beta = 69.00000, Total charge =  0.00000

*** Psi4 exiting successfully. Buy a developer a beer!
