                               Psi4 1.3.2 release

  ==> Input File <==

--------------------------------------------------------------------------
molecule {
0 1
C -0.185035074998 -0.665285082337 -0.680204733427
N -0.178666286389 -1.699834129155 -1.665450029127
C -1.402892413515 -0.070794584475 -0.395092170126
N -3.206289479686 0.873184941779 0.657331631224
C -2.651245898814 -0.494103215965 -1.023211704248
C -1.822269691760 0.827533267076 0.742115140976
C -3.687067805604 0.103975475276 -0.387643117722
C 1.171177000251 -0.373573375106 -0.172370313357
C 2.260848654308 -1.035483987361 -0.780253842954
C 1.459455840754 0.624155703812 0.777532375010
C 3.571126391102 -0.747531361118 -0.414770361420
C 2.774874565717 0.894522172853 1.144746323409
C 3.841214004838 0.228625165011 0.543261938890
H 0.070376869620 -1.347475103883 -2.589274357666
H -3.749778990781 1.410345579052 1.319817363542
O -1.202424195648 1.438323194598 1.615948714173
H 2.070935431281 -1.832464870669 -1.488789020795
H 0.651271196892 1.162772635552 1.252124237783
H 4.387480634747 -1.282776788877 -0.893891361389
H 2.964400076905 1.659259085476 1.894153136855
H 4.865832759163 0.450991332223 0.831421795654
H -1.101966897175 -2.115891846973 -1.744850109073
H -2.761793819053 -1.071533100114 -1.929482461275
H -4.747258105267 0.054849892590 -0.599850735158
}
memory 8.333333333333334GB
set_num_threads(1)
psi4_io.set_default_path("/scratch/bdw2292/Psi4-7_Index_0-farH_in17")
set maxiter 500
set freeze_core True
set PROPERTIES_ORIGIN ["COM"]
set cubeprop_tasks ['esp']
E, wfn = properties('mp2/aug-cc-pVTZ',properties=['dipole'],return_wfn=True)
cubeprop(wfn)
fchk(wfn, "7_Index_0-esp.fchk")
oeprop(wfn,"GRID_ESP","WIBERG_LOWDIN_INDICES","MULLIKEN_CHARGES")
clean()
--------------------------------------------------------------------------

    Molecular point group: c1
  Charge       = 0
  Multiplicity = 1
  Basis Set: AUG-CC-PVTZ
    Blend: AUG-CC-PVTZ
  Basis Set: (AUG-CC-PVTZ AUX)
    Blend: AUG-CC-PVTZ-JKFIT

    Orbital Energies [Eh]
    ---------------------

    Doubly Occupied:

       1A    -20.522165     2A    -15.599979     3A    -15.572989
       4A    -11.360149     5A    -11.318920     6A    -11.286159
       7A    -11.248573     8A    -11.246850     9A    -11.240385
      10A    -11.237747    11A    -11.233325    12A    -11.231960
      13A    -11.228829    14A    -11.226418    15A     -1.379243
      16A     -1.274052    17A     -1.234206    18A     -1.147675
      19A     -1.070882    20A     -1.033221    21A     -1.011006
      22A     -0.980310    23A     -0.897363    24A     -0.835675
      25A     -0.818478    26A     -0.801770    27A     -0.745908
      28A     -0.712823    29A     -0.705626    30A     -0.674697
      31A     -0.647883    32A     -0.638660    33A     -0.615675
      34A     -0.609968    35A     -0.607142    36A     -0.599425
      37A     -0.586167    38A     -0.581645    39A     -0.548082
      40A     -0.512054    41A     -0.505495    42A     -0.488157
      43A     -0.476342    44A     -0.458331    45A     -0.420614
      46A     -0.402529    47A     -0.347468    48A     -0.332058
      49A     -0.279051

  @DF-RHF Final Energy:  -606.31307917284460

   => Energetics <=

    Nuclear Repulsion Energy =            814.9731639034464479
    One-Electron Energy =               -2441.5042259278534402
    Two-Electron Energy =                1020.2179828515623967
    Total Energy =                       -606.3130791728445956
  Basis Set: (AUG-CC-PVTZ AUX)
    Blend: AUG-CC-PVTZ-RI
    Molecular point group: c1

    Geometry (in Angstrom), charge = 0, multiplicity = 1:

       Center              X                  Y                   Z               Mass
    ------------   -----------------  -----------------  -----------------  -----------------
         C           -0.185035074998    -0.665285082337    -0.680204733427    12.000000000000
         N           -0.178666286389    -1.699834129155    -1.665450029127    14.003074004430
         C           -1.402892413515    -0.070794584475    -0.395092170126    12.000000000000
         N           -3.206289479686     0.873184941779     0.657331631224    14.003074004430
         C           -2.651245898814    -0.494103215965    -1.023211704248    12.000000000000
         C           -1.822269691760     0.827533267076     0.742115140976    12.000000000000
         C           -3.687067805604     0.103975475276    -0.387643117722    12.000000000000
         C            1.171177000251    -0.373573375106    -0.172370313357    12.000000000000
         C            2.260848654308    -1.035483987361    -0.780253842954    12.000000000000
         C            1.459455840754     0.624155703812     0.777532375010    12.000000000000
         C            3.571126391102    -0.747531361118    -0.414770361420    12.000000000000
         C            2.774874565717     0.894522172853     1.144746323409    12.000000000000
         C            3.841214004838     0.228625165011     0.543261938890    12.000000000000
         H            0.070376869620    -1.347475103883    -2.589274357666     1.007825032230
         H           -3.749778990781     1.410345579052     1.319817363542     1.007825032230
         O           -1.202424195648     1.438323194598     1.615948714173    15.994914619570
         H            2.070935431281    -1.832464870669    -1.488789020795     1.007825032230
         H            0.651271196892     1.162772635552     1.252124237783     1.007825032230
         H            4.387480634747    -1.282776788877    -0.893891361389     1.007825032230
         H            2.964400076905     1.659259085476     1.894153136855     1.007825032230
         H            4.865832759163     0.450991332223     0.831421795654     1.007825032230
         H           -1.101966897175    -2.115891846973    -1.744850109073     1.007825032230
         H           -2.761793819053    -1.071533100114    -1.929482461275     1.007825032230
         H           -4.747258105267     0.054849892590    -0.599850735158     1.007825032230

  Basis Set: AUG-CC-PVTZ
    Blend: AUG-CC-PVTZ
  Basis Set: (AUG-CC-PVTZ AUX)
    Blend: AUG-CC-PVTZ-JKFIT
	 Reference Energy          =    -606.3130791728445956 [Eh]
	 Singles Energy            =      -0.0000000000000000 [Eh]
	 Same-Spin Energy          =      -0.6238840403371859 [Eh]
	 Opposite-Spin Energy      =      -1.7888075381568549 [Eh]
	 Correlation Energy        =      -2.4126915784940408 [Eh]
	 Total Energy              =    -608.7257707513385867 [Eh]

	 ================> DF-SCS-MP2 Energies <==================
	-----------------------------------------------------------
	 SCS Same-Spin Scale       =       0.3333333333333333 [-]
	 SCS Opposite-Spin Scale   =       1.2000000000000000 [-]
	 SCS Same-Spin Energy      =      -0.2079613467790620 [Eh]
	 SCS Opposite-Spin Energy  =      -2.1465690457882256 [Eh]
	 SCS Correlation Energy    =      -2.3545303925672876 [Eh]
	 SCS Total Energy          =    -608.6676095654119081 [Eh]
	-----------------------------------------------------------

  Dipole Moment: [D]
     X:    -2.3046      Y:    -0.8138      Z:    -2.4519     Total:     3.4620

  Basis Set: AUG-CC-PVTZ
    Blend: AUG-CC-PVTZ

  Mulliken Charges: (a.u.)
   Center  Symbol    Alpha    Beta     Spin     Total
       1     C     2.58535  2.58535  0.00000  0.82930
       2     N     3.87279  3.87279  0.00000 -0.74558
       3     C     2.43589  2.43589  0.00000  1.12821
       4     N     3.45270  3.45270  0.00000  0.09460
       5     C     3.22902  3.22902  0.00000 -0.45804
       6     C     3.04523  3.04523  0.00000 -0.09047
       7     C     3.48362  3.48362  0.00000 -0.96725
       8     C     2.14109  2.14109  0.00000  1.71781
       9     C     3.40114  3.40114  0.00000 -0.80229
      10     C     3.51861  3.51861  0.00000 -1.03721
      11     C     3.38206  3.38206  0.00000 -0.76412
      12     C     3.43140  3.43140  0.00000 -0.86279
      13     C     3.15956  3.15956  0.00000 -0.31912
      14     H     0.43688  0.43688  0.00000  0.12625
      15     H     0.45342  0.45342  0.00000  0.09315
      16     O     4.40318  4.40318  0.00000 -0.80637
      17     H     0.45421  0.45421  0.00000  0.09157
      18     H     0.29536  0.29536  0.00000  0.40929
      19     H     0.29559  0.29559  0.00000  0.40883
      20     H     0.28429  0.28429  0.00000  0.43141
      21     H     0.25815  0.25815  0.00000  0.48371
      22     H     0.49625  0.49625  0.00000  0.00751
      23     H     0.32162  0.32162  0.00000  0.35676
      24     H     0.16258  0.16258  0.00000  0.67485

   Total alpha = 49.00000, Total beta = 49.00000, Total charge = -0.00000

*** Psi4 exiting successfully. Buy a developer a beer!
