                               Psi4 1.3.2 release

  ==> Input File <==

--------------------------------------------------------------------------
molecule {
0 1
 C   -0.365500   -0.402700   -0.447200
 N   -0.426400   -1.453100   -1.512900
 C   -1.516600    0.098000   -0.113200
 N   -3.476200    1.137800    0.703100
 C   -2.762100   -0.392800   -0.788200
 C   -2.028400    1.067100    0.819000
 C   -3.805600    0.223200   -0.287600
 C    0.987300   -0.161600   -0.031000
 C    2.065200   -0.755200   -0.709400
 C    1.359100    0.635300    1.007000
 C    3.378100   -0.573400   -0.386300
 C    2.701000    0.846700    1.369100
 C    3.698000    0.239200    0.667000
 H   -0.259000   -1.130400   -2.475300
 H   -4.115300    1.747100    1.249700
 O   -1.442000    1.787800    1.644800
 H    1.808700   -1.402600   -1.555700
 H    0.651300    1.141100    1.618000
 H    4.183000   -1.058500   -0.934300
 H    2.910600    1.506800    2.213000
 H    4.733700    0.412600    0.955400
 H   -0.634200   -2.395500   -1.164400
 H   -2.820100   -1.140700   -1.565000
 H   -4.824600    0.023900   -0.630100
}
set {
  geom_maxiter 400
  g_convergence GAU
  dynamic_level 1
}
set optking {
  frozen_dihedral = ("
    3 1 8 9
, 14 2 1 3
, 5 3 1 8
  ")
}
memory 8.333333333333334GB
set_num_threads(1)
psi4_io.set_default_path("/scratch/bdw2292/Psi4-7_Index_0-farH_in17")
for _ in range(1):
  try:
    set opt_coordinates both
    optimize('mp2/6-31G*')
    break
  except OptimizationConvergenceError:
    break
  else:
    try:
      set opt_coordinates cartesian
      optimize('mp2/6-31G*')
      break
    except OptimizationConvergenceError:
      pass
clean()
--------------------------------------------------------------------------

    Molecular point group: c1
  Charge       = 0
  Multiplicity = 1
  Basis Set: 6-31G*
    Blend: 6-31G*
  Basis Set: (6-31G* AUX)
    Blend: CC-PVDZ-JKFIT
  @DF-RHF Final Energy:  -606.05101924901396
    Total Energy =                       -606.0510192490139616
  Basis Set: (6-31G* AUX)
    Blend: CC-PVDZ-RI
    Molecular point group: c1
  Basis Set: 6-31G*
    Blend: 6-31G*
  Basis Set: (6-31G* AUX)
    Blend: CC-PVDZ-JKFIT
  Basis Set: (6-31G* AUX)
    Blend: CC-PVDZ-JKFIT
	 Reference Energy          =    -606.0510192490139616 [Eh]
	 Singles Energy            =      -0.0000000000000000 [Eh]
	 Same-Spin Energy          =      -0.5291361686946767 [Eh]
	 Opposite-Spin Energy      =      -1.4263503329068976 [Eh]
	 Correlation Energy        =      -1.9554865016015743 [Eh]
	 Total Energy              =    -608.0065057506155881 [Eh]
	 SCS Total Energy          =    -607.9390183714004934 [Eh]
  @DF-RHF Final Energy:  -606.08331109320466
    Total Energy =                       -606.0833110932046566
  @DF-RHF Final Energy:  -606.08826851879178
    Total Energy =                       -606.0882685187917787
  @DF-RHF Final Energy:  -606.08877656509367
    Total Energy =                       -606.0887765650936672
  @DF-RHF Final Energy:  -605.93559438413672
    Total Energy =                       -605.9355943841367207
  @DF-RHF Final Energy:  -606.08877656538630
    Total Energy =                       -606.0887765653862971
  @DF-RHF Final Energy:  -606.09277951052331
    Total Energy =                       -606.0927795105233145
  @DF-RHF Final Energy:  -606.09501350626010
    Total Energy =                       -606.0950135062601021
  @DF-RHF Final Energy:  -606.09658341157512
    Total Energy =                       -606.0965834115751250
  @DF-RHF Final Energy:  -606.09731306285278
    Total Energy =                       -606.0973130628527770
  @DF-RHF Final Energy:  -606.09792363426573
    Total Energy =                       -606.0979236342657259
  @DF-RHF Final Energy:  -606.09750319418754
    Total Energy =                       -606.0975031941875386
  @DF-RHF Final Energy:  -606.09736021665333
    Total Energy =                       -606.0973602166533283
  @DF-RHF Final Energy:  -606.09697541462651
    Total Energy =                       -606.0969754146265132
  @DF-RHF Final Energy:  -606.09722153479424
    Total Energy =                       -606.0972215347942438
  @DF-RHF Final Energy:  -606.09716704939365
    Total Energy =                       -606.0971670493936472
  @DF-RHF Final Energy:  -606.09738242643891
    Total Energy =                       -606.0973824264389123
  Charge       = 0
  Multiplicity = 1
  Basis Set: 6-31G*
    Blend: 6-31G*
  Basis Set: (6-31G* AUX)
    Blend: CC-PVDZ-JKFIT

    Orbital Energies [Eh]
    ---------------------

    Doubly Occupied:

       1A    -20.525807     2A    -15.600510     3A    -15.574924
       4A    -11.358598     5A    -11.314619     6A    -11.284440
       7A    -11.245432     8A    -11.242053     9A    -11.236875
      10A    -11.233659    11A    -11.230632    12A    -11.228294
      13A    -11.224964    14A    -11.222031    15A     -1.373901
      16A     -1.268914    17A     -1.229999    18A     -1.140807
      19A     -1.065746    20A     -1.027112    21A     -1.004405
      22A     -0.975244    23A     -0.892086    24A     -0.829529
      25A     -0.812380    26A     -0.796900    27A     -0.740191
      28A     -0.707083    29A     -0.700391    30A     -0.670630
      31A     -0.641902    32A     -0.633492    33A     -0.609058
      34A     -0.603305    35A     -0.601001    36A     -0.593298
      37A     -0.580097    38A     -0.575509    39A     -0.541666
      40A     -0.504765    41A     -0.498784    42A     -0.481630
      43A     -0.468381    44A     -0.451573    45A     -0.412033
      46A     -0.395331    47A     -0.339889    48A     -0.324401
      49A     -0.271239

  @DF-RHF Final Energy:  -606.09737665789271

   => Energetics <=

    Nuclear Repulsion Energy =            814.9731639034737327
    One-Electron Energy =               -2441.5700561991093309
    Two-Electron Energy =                1020.4995156377428884
    Total Energy =                       -606.0973766578927098

  Dipole Moment: [D]
     X:    -2.2088      Y:    -1.0869      Z:    -3.0178     Total:     3.8945

  Basis Set: (6-31G* AUX)
    Blend: CC-PVDZ-RI
    Molecular point group: c1
  Basis Set: 6-31G*
    Blend: 6-31G*
  Basis Set: (6-31G* AUX)
    Blend: CC-PVDZ-JKFIT
  Basis Set: (6-31G* AUX)
    Blend: CC-PVDZ-JKFIT
	 Reference Energy          =    -606.0973766578927098 [Eh]
	 Singles Energy            =      -0.0000000000000000 [Eh]
	 Same-Spin Energy          =      -0.5310473587596872 [Eh]
	 Opposite-Spin Energy      =      -1.4291324824488256 [Eh]
	 Correlation Energy        =      -1.9601798412085127 [Eh]
	 Total Energy              =    -608.0575564991012243 [Eh]

	 ================> DF-SCS-MP2 Energies <==================
	-----------------------------------------------------------
	 SCS Same-Spin Scale       =       0.3333333333333333 [-]
	 SCS Opposite-Spin Scale   =       1.2000000000000000 [-]
	 SCS Same-Spin Energy      =      -0.1770157862532291 [Eh]
	 SCS Opposite-Spin Energy  =      -1.7149589789385906 [Eh]
	 SCS Correlation Energy    =      -1.8919747651918197 [Eh]
	 SCS Total Energy          =    -607.9893514230844858 [Eh]
	-----------------------------------------------------------

  -Total Gradient:
     Atom            X                  Y                   Z
    ------   -----------------  -----------------  -----------------
       1       -0.002317831865    -0.002859452861     0.003336347808
       2        0.006847202346     0.000023273249    -0.000102810598
       3        0.002105888644     0.009195000081    -0.010167661030
       4        0.000055808417     0.000012769644    -0.000008626544
       5       -0.000844513534    -0.003758157854     0.004212693590
       6       -0.000078166281     0.000066133267     0.000054378387
       7       -0.000008328349    -0.000099158337     0.000050652378
       8       -0.000922007607    -0.006753497541     0.006495391718
       9        0.000335322671     0.003226690664    -0.002841269082
      10        0.000051524844    -0.000037552741     0.000019788432
      11        0.000016836344     0.000055378111     0.000019307700
      12       -0.000025527885     0.000040277565     0.000022591729
      13       -0.000024874247    -0.000049454828    -0.000014467218
      14       -0.005211044252     0.000907001238    -0.000985724951
      15        0.000043682175     0.000002693415    -0.000066863072
      16       -0.000029089063    -0.000051987750    -0.000051608176
      17       -0.000001063807     0.000017538122     0.000003323647
      18       -0.000028889417     0.000011822967    -0.000013404070
      19       -0.000008147565    -0.000001473445     0.000010948121
      20        0.000000073127    -0.000027993086    -0.000025390496
      21       -0.000005145356     0.000004690719    -0.000011114303
      22        0.000028543098    -0.000016400565    -0.000011179942
      23        0.000006048112     0.000088523122     0.000066808364
      24        0.000013699453     0.000003336840     0.000007887604

  **** Optimization is complete! (in 12 steps) ****
    Final optimized geometry and variables:
    Molecular point group: c1

    Geometry (in Angstrom), charge = 0, multiplicity = 1:

    C           -0.185035074998    -0.665285082337    -0.680204733427
    N           -0.178666286389    -1.699834129155    -1.665450029127
    C           -1.402892413515    -0.070794584475    -0.395092170126
    N           -3.206289479686     0.873184941779     0.657331631224
    C           -2.651245898814    -0.494103215965    -1.023211704248
    C           -1.822269691760     0.827533267076     0.742115140976
    C           -3.687067805604     0.103975475276    -0.387643117722
    C            1.171177000251    -0.373573375106    -0.172370313357
    C            2.260848654308    -1.035483987361    -0.780253842954
    C            1.459455840754     0.624155703812     0.777532375010
    C            3.571126391102    -0.747531361118    -0.414770361420
    C            2.774874565717     0.894522172853     1.144746323409
    C            3.841214004838     0.228625165011     0.543261938890
    H            0.070376869620    -1.347475103883    -2.589274357666
    H           -3.749778990781     1.410345579052     1.319817363542
    O           -1.202424195648     1.438323194598     1.615948714173
    H            2.070935431281    -1.832464870669    -1.488789020795
    H            0.651271196892     1.162772635552     1.252124237783
    H            4.387480634747    -1.282776788877    -0.893891361389
    H            2.964400076905     1.659259085476     1.894153136855
    H            4.865832759163     0.450991332223     0.831421795654
    H           -1.101966897175    -2.115891846973    -1.744850109073
    H           -2.761793819053    -1.071533100114    -1.929482461275
    H           -4.747258105267     0.054849892590    -0.599850735158

*** Psi4 exiting successfully. Buy a developer a beer!
