                               Psi4 1.3.2 release

  ==> Input File <==

--------------------------------------------------------------------------
molecule {
0 1
C -0.185035074998 -0.665285082337 -0.680204733427
N -0.178666286389 -1.699834129155 -1.665450029127
C -1.402892413515 -0.070794584475 -0.395092170126
N -3.206289479686 0.873184941779 0.657331631224
C -2.651245898814 -0.494103215965 -1.023211704248
C -1.822269691760 0.827533267076 0.742115140976
C -3.687067805604 0.103975475276 -0.387643117722
C 1.171177000251 -0.373573375106 -0.172370313357
C 2.260848654308 -1.035483987361 -0.780253842954
C 1.459455840754 0.624155703812 0.777532375010
C 3.571126391102 -0.747531361118 -0.414770361420
C 2.774874565717 0.894522172853 1.144746323409
C 3.841214004838 0.228625165011 0.543261938890
H 0.070376869620 -1.347475103883 -2.589274357666
H -3.749778990781 1.410345579052 1.319817363542
O -1.202424195648 1.438323194598 1.615948714173
H 2.070935431281 -1.832464870669 -1.488789020795
H 0.651271196892 1.162772635552 1.252124237783
H 4.387480634747 -1.282776788877 -0.893891361389
H 2.964400076905 1.659259085476 1.894153136855
H 4.865832759163 0.450991332223 0.831421795654
H -1.101966897175 -2.115891846973 -1.744850109073
H -2.761793819053 -1.071533100114 -1.929482461275
H -4.747258105267 0.054849892590 -0.599850735158
}
memory 8.333333333333334GB
set_num_threads(1)
psi4_io.set_default_path("/scratch/bdw2292/Psi4-7_Index_0-farH_in17")
set freeze_core True
set PROPERTIES_ORIGIN ["COM"]
set cubeprop_tasks ['esp']
E, wfn = properties('mp2/6-311G**',properties=['dipole'],return_wfn=True)
cubeprop(wfn)
fchk(wfn, "7_Index_0-dma.fchk")
clean()
--------------------------------------------------------------------------

    Molecular point group: c1
  Charge       = 0
  Multiplicity = 1
  Basis Set: 6-311G**
    Blend: 6-311G**
  Basis Set: (6-311G** AUX)
    Blend: CC-PVTZ-JKFIT

    Orbital Energies [Eh]
    ---------------------

    Doubly Occupied:

       1A    -20.515803     2A    -15.595350     3A    -15.568821
       4A    -11.359179     5A    -11.316655     6A    -11.284933
       7A    -11.246790     8A    -11.244741     9A    -11.238174
      10A    -11.235311    11A    -11.231089    12A    -11.229785
      13A    -11.226604    14A    -11.224063    15A     -1.377750
      16A     -1.272607    17A     -1.232999    18A     -1.145929
      19A     -1.069556    20A     -1.031707    21A     -1.009322
      22A     -0.979232    23A     -0.896111    24A     -0.834155
      25A     -0.816886    26A     -0.800531    27A     -0.744543
      28A     -0.711407    29A     -0.704262    30A     -0.673422
      31A     -0.646290    32A     -0.637257    33A     -0.613972
      34A     -0.608096    35A     -0.605058    36A     -0.597512
      37A     -0.584688    38A     -0.580208    39A     -0.546573
      40A     -0.509449    41A     -0.503670    42A     -0.486166
      43A     -0.473088    44A     -0.456026    45A     -0.417336
      46A     -0.399910    47A     -0.344912    48A     -0.329592
      49A     -0.276307

  @DF-RHF Final Energy:  -606.23998559553434

   => Energetics <=

    Nuclear Repulsion Energy =            814.9731639034464479
    One-Electron Energy =               -2441.5586442799503857
    Two-Electron Energy =                1020.3454947809696023
    Total Energy =                       -606.2399855955343355
  Basis Set: (6-311G** AUX)
    Blend: CC-PVTZ-RI
    Molecular point group: c1

    Geometry (in Angstrom), charge = 0, multiplicity = 1:

       Center              X                  Y                   Z               Mass
    ------------   -----------------  -----------------  -----------------  -----------------
         C           -0.185035074998    -0.665285082337    -0.680204733427    12.000000000000
         N           -0.178666286389    -1.699834129155    -1.665450029127    14.003074004430
         C           -1.402892413515    -0.070794584475    -0.395092170126    12.000000000000
         N           -3.206289479686     0.873184941779     0.657331631224    14.003074004430
         C           -2.651245898814    -0.494103215965    -1.023211704248    12.000000000000
         C           -1.822269691760     0.827533267076     0.742115140976    12.000000000000
         C           -3.687067805604     0.103975475276    -0.387643117722    12.000000000000
         C            1.171177000251    -0.373573375106    -0.172370313357    12.000000000000
         C            2.260848654308    -1.035483987361    -0.780253842954    12.000000000000
         C            1.459455840754     0.624155703812     0.777532375010    12.000000000000
         C            3.571126391102    -0.747531361118    -0.414770361420    12.000000000000
         C            2.774874565717     0.894522172853     1.144746323409    12.000000000000
         C            3.841214004838     0.228625165011     0.543261938890    12.000000000000
         H            0.070376869620    -1.347475103883    -2.589274357666     1.007825032230
         H           -3.749778990781     1.410345579052     1.319817363542     1.007825032230
         O           -1.202424195648     1.438323194598     1.615948714173    15.994914619570
         H            2.070935431281    -1.832464870669    -1.488789020795     1.007825032230
         H            0.651271196892     1.162772635552     1.252124237783     1.007825032230
         H            4.387480634747    -1.282776788877    -0.893891361389     1.007825032230
         H            2.964400076905     1.659259085476     1.894153136855     1.007825032230
         H            4.865832759163     0.450991332223     0.831421795654     1.007825032230
         H           -1.101966897175    -2.115891846973    -1.744850109073     1.007825032230
         H           -2.761793819053    -1.071533100114    -1.929482461275     1.007825032230
         H           -4.747258105267     0.054849892590    -0.599850735158     1.007825032230

  Basis Set: 6-311G**
    Blend: 6-311G**
  Basis Set: (6-311G** AUX)
    Blend: CC-PVTZ-JKFIT
	 Reference Energy          =    -606.2399855955343355 [Eh]
	 Singles Energy            =      -0.0000000000000000 [Eh]
	 Same-Spin Energy          =      -0.5523633695495889 [Eh]
	 Opposite-Spin Energy      =      -1.4972249505220969 [Eh]
	 Correlation Energy        =      -2.0495883200716856 [Eh]
	 Total Energy              =    -608.2895739156060699 [Eh]

	 ================> DF-SCS-MP2 Energies <==================
	-----------------------------------------------------------
	 SCS Same-Spin Scale       =       0.3333333333333333 [-]
	 SCS Opposite-Spin Scale   =       1.2000000000000000 [-]
	 SCS Same-Spin Energy      =      -0.1841211231831963 [Eh]
	 SCS Opposite-Spin Energy  =      -1.7966699406265163 [Eh]
	 SCS Correlation Energy    =      -1.9807910638097126 [Eh]
	 SCS Total Energy          =    -608.2207766593440965 [Eh]
	-----------------------------------------------------------

  Dipole Moment: [D]
     X:    -2.5402      Y:    -0.6654      Z:    -2.3929     Total:     3.5527

  Basis Set: 6-311G**
    Blend: 6-311G**
*** Psi4 exiting successfully. Buy a developer a beer!
