                               Psi4 1.3.2 release

  ==> Input File <==

--------------------------------------------------------------------------
molecule {
0 1
 Cl                 -0.3305712     1.3344966     0.3964185
 Cl                  1.9152338    -0.4658238     0.0056181
 Cl                 -0.8039666    -1.4804745    -0.1359058
  C                  0.2708983    -0.3046174     0.6122043
  H                  0.2919728    -0.5092524     1.6825174
--
0 1
  O                 -1.7565062     3.4122649    -0.4737411
  H                 -2.4330032     2.7362248    -0.5211352
  H                 -1.3712436     3.5152058    -1.3441708
}
memory 15GB
set_num_threads(4)
psi4_io.set_default_path("/scratch/bdw2292/Psi4-CHCl3")
set maxiter 500
set freeze_core True
set PROPERTIES_ORIGIN ["COM"]
e_dim= energy('mp2/aug-cc-pV[TQ]Z',bsse_type='cp')

psi4.print_out('CP Energy = %10.6f' % (e_dim))
clean()
--------------------------------------------------------------------------

    Molecular point group: c1
  Charge       = 0
  Multiplicity = 1
  Basis Set: AUG-CC-PVTZ
    Blend: AUG-CC-PVTZ
  Basis Set: (AUG-CC-PVTZ AUX)
    Blend: AUG-CC-PVTZ-JKFIT
  @DF-RHF Final Energy:   -76.06044360187451
    Total Energy =                        -76.0604436018744963
  Basis Set: (AUG-CC-PVTZ AUX)
    Blend: AUG-CC-PVTZ-RI
	 Reference Energy          =     -76.0604436018745105 [Eh]
	 Singles Energy            =      -0.0000000000000000 [Eh]
	 Same-Spin Energy          =      -0.0650941314457026 [Eh]
	 Opposite-Spin Energy      =      -0.2029755224349274 [Eh]
	 Correlation Energy        =      -0.2680696538806300 [Eh]
	 Total Energy              =     -76.3285132557551407 [Eh]
	 SCS Total Energy          =     -76.3257122726116535 [Eh]
    Molecular point group: c1
  Basis Set: AUG-CC-PVQZ
    Blend: AUG-CC-PVQZ
  Basis Set: (AUG-CC-PVQZ AUX)
    Blend: AUG-CC-PVQZ-JKFIT
  @DF-RHF Final Energy:   -76.06583106927965
    Total Energy =                        -76.0658310692796533
  Basis Set: (AUG-CC-PVQZ AUX)
  @DF-RHF Final Energy:   -76.06051803243568
    Total Energy =                        -76.0605180324356809
  @DF-RHF Final Energy:   -76.06585957405063
    Total Energy =                        -76.0658595740506485
  @DF-RHF Final Energy: -1417.00233188860989
    Total Energy =                      -1417.0023318886096604
  @DF-RHF Final Energy: -1417.01578612040976
    Total Energy =                      -1417.0157861204097571
  @DF-RHF Final Energy: -1417.00225842608825
    Total Energy =                      -1417.0022584260882468
  @DF-RHF Final Energy: -1417.01577392863442
    Total Energy =                      -1417.0157739286344167
  Multiplicity = 1
  @DF-RHF Final Energy: -1493.05687067373583
    Total Energy =                      -1493.0568706737358298
	 Singles Energy            =      -0.0000000000000000 [Eh]
	 Same-Spin Energy          =      -0.2585659364498437 [Eh]
	 Opposite-Spin Energy      =      -0.7706870959767448 [Eh]
	 Correlation Energy        =      -1.0292530324265885 [Eh]
	 Total Energy              =   -1494.0861237061624252 [Eh]
	 SCS Total Energy          =   -1494.0678838343912957 [Eh]
    Molecular point group: c1

    Geometry (in Angstrom), charge = 0, multiplicity = 1:

       Center              X                  Y                   Z               Mass
    ------------   -----------------  -----------------  -----------------  -----------------
         CL          -0.322595465159     1.074672447570     0.331006865765    34.968852682000
         CL           1.923209534841    -0.725647952430    -0.059793534235    34.968852682000
         CL          -0.795990865159    -1.740298652430    -0.201317434235    34.968852682000
         C            0.278874034841    -0.564441552430     0.546792665765    12.000000000000
         H            0.299948534841    -0.769076552430     1.617105765765     1.007825032230
         O           -1.748530465159     3.152440747570    -0.539152734235    15.994914619570
         H           -2.425027465159     2.476400647570    -0.586546834235     1.007825032230
         H           -1.363267865159     3.255381647570    -1.409582434235     1.007825032230

  Charge       = 0
  Multiplicity = 1
  Basis Set: AUG-CC-PVQZ
    Blend: AUG-CC-PVQZ
  Basis Set: (AUG-CC-PVQZ AUX)
    Blend: AUG-CC-PVQZ-JKFIT

    Orbital Energies [Eh]
    ---------------------

    Doubly Occupied:

       1A   -104.861054     2A   -104.859502     3A   -104.856660
       4A    -20.565790     5A    -11.422066     6A    -10.586939
       7A    -10.585362     8A    -10.582392     9A     -8.053970
      10A     -8.052396    11A     -8.052041    12A     -8.051988
      13A     -8.050454    14A     -8.050403    15A     -8.049327
      16A     -8.047101    17A     -8.047042    18A     -1.357515
      19A     -1.239166    20A     -1.111960    21A     -1.109544
      22A     -0.867320    23A     -0.731528    24A     -0.676859
      25A     -0.627463    26A     -0.623428    27A     -0.583981
      28A     -0.524220    29A     -0.500285    30A     -0.491050
      31A     -0.464634    32A     -0.462319    33A     -0.455513
      34A     -0.445570

  @DF-RHF Final Energy: -1493.07576701714311

   => Energetics <=

    Nuclear Repulsion Energy =            350.2039799565993690
    One-Electron Energy =               -2760.4658107051982370
    Two-Electron Energy =                 917.1860637314559881
    Total Energy =                      -1493.0757670171431073

  Dipole Moment: [D]
     X:    -0.6179      Y:    -0.6671      Z:    -0.3774     Total:     0.9845

  Basis Set: (AUG-CC-PVQZ AUX)
    Blend: AUG-CC-PVQZ-RI
	 Reference Energy          =   -1493.0757670171431073 [Eh]
	 Singles Energy            =      -0.0000000000000000 [Eh]
	 Same-Spin Energy          =      -0.2668866883454005 [Eh]
	 Opposite-Spin Energy      =      -0.8392444607543782 [Eh]
	 Correlation Energy        =      -1.1061311490997787 [Eh]
	 Total Energy              =   -1494.1818981662429451 [Eh]

	 ================> DF-SCS-MP2 Energies <==================
	-----------------------------------------------------------
	 SCS Same-Spin Scale       =       0.3333333333333333 [-]
	 SCS Opposite-Spin Scale   =       1.2000000000000000 [-]
	 SCS Same-Spin Energy      =      -0.0889622294484668 [Eh]
	 SCS Opposite-Spin Energy  =      -1.0070933529052537 [Eh]
	 SCS Correlation Energy    =      -1.0960555823537206 [Eh]
	 SCS Total Energy          =   -1494.1718225994968634 [Eh]
	-----------------------------------------------------------

*** Psi4 exiting successfully. Buy a developer a beer!
