                               Psi4 1.3.2 release

  ==> Input File <==

--------------------------------------------------------------------------
molecule {
0 1
 Cl                 -0.0607084     0.3731964    -0.0136444
 Cl                  2.2864943    -1.3072355     0.3117727
 Cl                 -0.3552486    -2.5098910     0.1828073
  C                  0.5792523    -1.1072755     0.6895374
  H                  0.4887905    -1.0243117     1.7725520
--
0 1
 Cl                 -2.7613019     6.5767828    -0.5380285
 Cl                 -0.4235020     4.8520610    -0.5064692
 Cl                 -3.0852867     3.6898254    -0.5507273
  C                 -2.0982302     5.0382670     0.0010028
  H                 -2.1147547     5.0350447     1.0908452
}
memory 15GB
set_num_threads(4)
psi4_io.set_default_path("/scratch/bdw2292/Psi4-CHCl3")
set maxiter 500
set freeze_core True
set PROPERTIES_ORIGIN ["COM"]
e_dim= energy('mp2/aug-cc-pV[TQ]Z',bsse_type='cp')

psi4.print_out('CP Energy = %10.6f' % (e_dim))
clean()
--------------------------------------------------------------------------

    Molecular point group: c1
  Charge       = 0
  Multiplicity = 1
  Basis Set: AUG-CC-PVTZ
    Blend: AUG-CC-PVTZ
  Basis Set: (AUG-CC-PVTZ AUX)
    Blend: AUG-CC-PVTZ-JKFIT
  @DF-RHF Final Energy: -1417.00225658963768
    Total Energy =                      -1417.0022565896374545
  Basis Set: (AUG-CC-PVTZ AUX)
    Blend: AUG-CC-PVTZ-RI
	 Reference Energy          =   -1417.0022565896376818 [Eh]
	 Singles Energy            =      -0.0000000000000000 [Eh]
	 Same-Spin Energy          =      -0.1911304854875713 [Eh]
	 Opposite-Spin Energy      =      -0.5650644437820127 [Eh]
	 Correlation Energy        =      -0.7561949292695840 [Eh]
	 Total Energy              =   -1417.7584515189073500 [Eh]
	 SCS Total Energy          =   -1417.7440440840052815 [Eh]
    Molecular point group: c1
  Basis Set: AUG-CC-PVQZ
    Blend: AUG-CC-PVQZ
  Basis Set: (AUG-CC-PVQZ AUX)
    Blend: AUG-CC-PVQZ-JKFIT
  @DF-RHF Final Energy: -1417.01577144977932
    Total Energy =                      -1417.0157714497793222
  Basis Set: (AUG-CC-PVQZ AUX)
  @DF-RHF Final Energy: -1417.00227590754253
    Total Energy =                      -1417.0022759075425256
  @DF-RHF Final Energy: -1417.01577951134004
    Total Energy =                      -1417.0157795113398151
  @DF-RHF Final Energy: -1417.00228089136590
    Total Energy =                      -1417.0022808913658992
  @DF-RHF Final Energy: -1417.01577734491957
    Total Energy =                      -1417.0157773449195702
  @DF-RHF Final Energy: -1417.00225657707415
    Total Energy =                      -1417.0022565770741494
  @DF-RHF Final Energy: -1417.01577188275110
    Total Energy =                      -1417.0157718827513236
  Multiplicity = 1
  @DF-RHF Final Energy: -2834.00449237625799
    Total Energy =                      -2834.0044923762579856
	 Singles Energy            =      -0.0000000000000000 [Eh]
	 Same-Spin Energy          =      -0.3828831919059246 [Eh]
	 Opposite-Spin Energy      =      -1.1309074752207444 [Eh]
	 Correlation Energy        =      -1.5137906671266690 [Eh]
	 Total Energy              =   -2835.5182830433845993 [Eh]
	 SCS Total Energy          =   -2835.4892090771581934 [Eh]
    Molecular point group: c1

    Geometry (in Angstrom), charge = 0, multiplicity = 1:

       Center              X                  Y                   Z               Mass
    ------------   -----------------  -----------------  -----------------  -----------------
         CL           0.675901286205    -1.575108102000     0.104208636130    34.968852682000
         CL           3.023103986205    -3.255540002000     0.429625736130    34.968852682000
         CL           0.381361086205    -4.458195502000     0.300660336130    34.968852682000
         C            1.315861986205    -3.055580002000     0.807390436130    12.000000000000
         H            1.225400186205    -2.972616202000     1.890405036130     1.007825032230
         CL          -2.024692213795     4.628478298000    -0.420175463870    34.968852682000
         CL           0.313107686205     2.903756498000    -0.388616163870    34.968852682000
         CL          -2.348677013795     1.741520898000    -0.432874263870    34.968852682000
         C           -1.361620513795     3.089962498000     0.118855836130    12.000000000000
         H           -1.378145013795     3.086740198000     1.208698236130     1.007825032230

  Charge       = 0
  Multiplicity = 1
  Basis Set: AUG-CC-PVQZ
    Blend: AUG-CC-PVQZ
  Basis Set: (AUG-CC-PVQZ AUX)
    Blend: AUG-CC-PVQZ-JKFIT

    Orbital Energies [Eh]
    ---------------------

    Doubly Occupied:

       1A   -104.864835     2A   -104.864811     3A   -104.864751
       4A   -104.863870     5A   -104.863856     6A   -104.863331
       7A    -11.431889     8A    -11.430744     9A    -10.590637
      10A    -10.590611    11A    -10.590544    12A    -10.589675
      13A    -10.589658    14A    -10.589103    15A     -8.057666
      16A     -8.057641    17A     -8.057576    18A     -8.056705
      19A     -8.056691    20A     -8.056130    21A     -8.055701
      22A     -8.055676    23A     -8.055647    24A     -8.055622
      25A     -8.055611    26A     -8.055558    27A     -8.054742
      28A     -8.054728    29A     -8.054690    30A     -8.054675
      31A     -8.054154    32A     -8.054102    33A     -1.245230
      34A     -1.244127    35A     -1.116267    36A     -1.116245
      37A     -1.115321    38A     -1.114912    39A     -0.873082
      40A     -0.871942    41A     -0.682786    42A     -0.681630
      43A     -0.628985    44A     -0.628840    45A     -0.627793
      46A     -0.627420    47A     -0.505268    48A     -0.505160
      49A     -0.503891    50A     -0.503859    51A     -0.470266
      52A     -0.469149    53A     -0.468175    54A     -0.466887
      55A     -0.464140    56A     -0.462948    57A     -0.452070
      58A     -0.449943

  @DF-RHF Final Energy: -2834.03149067283448

   => Energetics <=

    Nuclear Repulsion Energy =            798.1331174919719160
    One-Electron Energy =               -5506.5532848915772774
    Two-Electron Energy =                1874.3886767267704272
    Total Energy =                      -2834.0314906728344795

  Dipole Moment: [D]
     X:    -0.1368      Y:     0.1372      Z:     2.3194     Total:     2.3275

  Basis Set: (AUG-CC-PVQZ AUX)
    Blend: AUG-CC-PVQZ-RI
	 Reference Energy          =   -2834.0314906728344795 [Eh]
	 Singles Energy            =      -0.0000000000000000 [Eh]
	 Same-Spin Energy          =      -0.3952472001136289 [Eh]
	 Opposite-Spin Energy      =      -1.2369375172419077 [Eh]
	 Correlation Energy        =      -1.6321847173555366 [Eh]
	 Total Energy              =   -2835.6636753901898373 [Eh]

	 ================> DF-SCS-MP2 Energies <==================
	-----------------------------------------------------------
	 SCS Same-Spin Scale       =       0.3333333333333333 [-]
	 SCS Opposite-Spin Scale   =       1.2000000000000000 [-]
	 SCS Same-Spin Energy      =      -0.1317490667045429 [Eh]
	 SCS Opposite-Spin Energy  =      -1.4843250206902892 [Eh]
	 SCS Correlation Energy    =      -1.6160740873948320 [Eh]
	 SCS Total Energy          =   -2835.6475647602292156 [Eh]
	-----------------------------------------------------------

*** Psi4 exiting successfully. Buy a developer a beer!
