                               Psi4 1.3.2 release

  ==> Input File <==

--------------------------------------------------------------------------
molecule {
0 1
 Cl                 -0.5194035     1.1727966     0.4643278
 Cl                  1.8709157    -0.4028258    -0.0239565
 Cl                 -0.7416489    -1.6718972    -0.0757464
  C                  0.2425763    -0.4027368     0.6441278
  H                  0.3224440    -0.6103714     1.7111723
--
0 1
  O                 -1.5856558     3.6954646    -0.6698641
  H                 -2.4482395     3.4675404    -1.0171409
  H                 -0.9533910     3.6643602    -1.3882759
}
memory 15GB
set_num_threads(4)
psi4_io.set_default_path("/scratch/bdw2292/Psi4-CHCl3")
set maxiter 500
set freeze_core True
set PROPERTIES_ORIGIN ["COM"]
e_dim= energy('mp2/aug-cc-pV[TQ]Z',bsse_type='cp')

psi4.print_out('CP Energy = %10.6f' % (e_dim))
clean()
--------------------------------------------------------------------------

    Molecular point group: c1
  Charge       = 0
  Multiplicity = 1
  Basis Set: AUG-CC-PVTZ
    Blend: AUG-CC-PVTZ
  Basis Set: (AUG-CC-PVTZ AUX)
    Blend: AUG-CC-PVTZ-JKFIT
  @DF-RHF Final Energy:   -76.06044776593285
    Total Energy =                        -76.0604477659328495
  Basis Set: (AUG-CC-PVTZ AUX)
    Blend: AUG-CC-PVTZ-RI
	 Reference Energy          =     -76.0604477659328495 [Eh]
	 Singles Energy            =      -0.0000000000000000 [Eh]
	 Same-Spin Energy          =      -0.0650935079746489 [Eh]
	 Opposite-Spin Energy      =      -0.2029734811959846 [Eh]
	 Correlation Energy        =      -0.2680669891706335 [Eh]
	 Total Energy              =     -76.3285147551034839 [Eh]
	 SCS Total Energy          =     -76.3257137793595746 [Eh]
    Molecular point group: c1
  Basis Set: AUG-CC-PVQZ
    Blend: AUG-CC-PVQZ
  Basis Set: (AUG-CC-PVQZ AUX)
    Blend: AUG-CC-PVQZ-JKFIT
  @DF-RHF Final Energy:   -76.06583544509643
    Total Energy =                        -76.0658354450964396
  Basis Set: (AUG-CC-PVQZ AUX)
  @DF-RHF Final Energy:   -76.06051006091015
    Total Energy =                        -76.0605100609101470
  @DF-RHF Final Energy:   -76.06585494161055
    Total Energy =                        -76.0658549416105529
  @DF-RHF Final Energy: -1417.00230511782297
    Total Energy =                      -1417.0023051178227433
  @DF-RHF Final Energy: -1417.01578145144276
    Total Energy =                      -1417.0157814514427628
  @DF-RHF Final Energy: -1417.00225780498840
    Total Energy =                      -1417.0022578049884032
  @DF-RHF Final Energy: -1417.01577312578934
    Total Energy =                      -1417.0157731257891101
  Multiplicity = 1
  @DF-RHF Final Energy: -1493.06205532051308
    Total Energy =                      -1493.0620553205130818
	 Singles Energy            =      -0.0000000000000000 [Eh]
	 Same-Spin Energy          =      -0.2575532212974763 [Eh]
	 Opposite-Spin Energy      =      -0.7695729630011847 [Eh]
	 Correlation Energy        =      -1.0271261842986610 [Eh]
	 Total Energy              =   -1494.0891815048116769 [Eh]
	 SCS Total Energy          =   -1494.0713939498803029 [Eh]
    Molecular point group: c1

    Geometry (in Angstrom), charge = 0, multiplicity = 1:

       Center              X                  Y                   Z               Mass
    ------------   -----------------  -----------------  -----------------  -----------------
         CL          -0.488293869675     0.957170045760     0.397629580948    34.968852682000
         CL           1.902025330325    -0.618452354240    -0.090654719052    34.968852682000
         CL          -0.710539269675    -1.887523754240    -0.142444619052    34.968852682000
         C            0.273685930325    -0.618363354240     0.577429580948    12.000000000000
         H            0.353553630325    -0.825997954240     1.644474080948     1.007825032230
         O           -1.554546169675     3.479838045760    -0.736562319052    15.994914619570
         H           -2.417129869675     3.251913845760    -1.083839119052     1.007825032230
         H           -0.922281369675     3.448733645760    -1.454974119052     1.007825032230

  Charge       = 0
  Multiplicity = 1
  Basis Set: AUG-CC-PVQZ
    Blend: AUG-CC-PVQZ
  Basis Set: (AUG-CC-PVQZ AUX)
    Blend: AUG-CC-PVQZ-JKFIT

    Orbital Energies [Eh]
    ---------------------

    Doubly Occupied:

       1A   -104.859694     2A   -104.859666     3A   -104.855599
       4A    -20.565402     5A    -11.423265     6A    -10.585562
       7A    -10.585524     8A    -10.581175     9A     -8.052594
      10A     -8.052557    11A     -8.050652    12A     -8.050614
      13A     -8.050601    14A     -8.050563    15A     -8.048142
      16A     -8.046043    17A     -8.045994    18A     -1.354169
      19A     -1.238571    20A     -1.111241    21A     -1.108129
      22A     -0.866308    23A     -0.728612    24A     -0.676115
      25A     -0.623221    26A     -0.622857    27A     -0.581120
      28A     -0.518657    29A     -0.499166    30A     -0.494089
      31A     -0.463605    32A     -0.461952    33A     -0.456119
      34A     -0.445108

  @DF-RHF Final Energy: -1493.08089843021094

   => Energetics <=

    Nuclear Repulsion Energy =            344.2606144334280316
    One-Electron Energy =               -2748.6576548978569008
    Two-Electron Energy =                 911.3161420342179326
    Total Energy =                      -1493.0808984302107092

  Dipole Moment: [D]
     X:    -0.4792      Y:    -0.2645      Z:    -0.6293     Total:     0.8340

  Basis Set: (AUG-CC-PVQZ AUX)
    Blend: AUG-CC-PVQZ-RI
	 Reference Energy          =   -1493.0808984302109366 [Eh]
	 Singles Energy            =      -0.0000000000000000 [Eh]
	 Same-Spin Energy          =      -0.2658346663623548 [Eh]
	 Opposite-Spin Energy      =      -0.8380885415244764 [Eh]
	 Correlation Energy        =      -1.1039232078868313 [Eh]
	 Total Energy              =   -1494.1848216380976737 [Eh]

	 ================> DF-SCS-MP2 Energies <==================
	-----------------------------------------------------------
	 SCS Same-Spin Scale       =       0.3333333333333333 [-]
	 SCS Opposite-Spin Scale   =       1.2000000000000000 [-]
	 SCS Same-Spin Energy      =      -0.0886115554541183 [Eh]
	 SCS Opposite-Spin Energy  =      -1.0057062498293716 [Eh]
	 SCS Correlation Energy    =      -1.0943178052834899 [Eh]
	 SCS Total Energy          =   -1494.1752162354944176 [Eh]
	-----------------------------------------------------------

*** Psi4 exiting successfully. Buy a developer a beer!
