                               Psi4 1.3.2 release

  ==> Input File <==

--------------------------------------------------------------------------
molecule {
0 1
 Cl                 -0.5194035     1.1727966     0.4643278
 Cl                  1.8709157    -0.4028258    -0.0239565
 Cl                 -0.7416489    -1.6718972    -0.0757464
  C                  0.2425763    -0.4027368     0.6441278
  H                  0.3224440    -0.6103714     1.7111723
--
0 1
  O                 -1.7041282     3.9757611    -0.7958855
  H                 -2.5667119     3.7478368    -1.1431622
  H                 -1.0718634     3.9446566    -1.5142972
}
memory 15GB
set_num_threads(4)
psi4_io.set_default_path("/scratch/bdw2292/Psi4-CHCl3")
set maxiter 500
set freeze_core True
set PROPERTIES_ORIGIN ["COM"]
e_dim= energy('mp2/aug-cc-pV[TQ]Z',bsse_type='cp')

psi4.print_out('CP Energy = %10.6f' % (e_dim))
clean()
--------------------------------------------------------------------------

    Molecular point group: c1
  Charge       = 0
  Multiplicity = 1
  Basis Set: AUG-CC-PVTZ
    Blend: AUG-CC-PVTZ
  Basis Set: (AUG-CC-PVTZ AUX)
    Blend: AUG-CC-PVTZ-JKFIT
  @DF-RHF Final Energy:   -76.06044776805501
    Total Energy =                        -76.0604477680550133
  Basis Set: (AUG-CC-PVTZ AUX)
    Blend: AUG-CC-PVTZ-RI
	 Reference Energy          =     -76.0604477680550133 [Eh]
	 Singles Energy            =      -0.0000000000000000 [Eh]
	 Same-Spin Energy          =      -0.0650935071323077 [Eh]
	 Opposite-Spin Energy      =      -0.2029734783201995 [Eh]
	 Correlation Energy        =      -0.2680669854525072 [Eh]
	 Total Energy              =     -76.3285147535075197 [Eh]
	 SCS Total Energy          =     -76.3257137777500247 [Eh]
    Molecular point group: c1
  Basis Set: AUG-CC-PVQZ
    Blend: AUG-CC-PVQZ
  Basis Set: (AUG-CC-PVQZ AUX)
    Blend: AUG-CC-PVQZ-JKFIT
  @DF-RHF Final Energy:   -76.06583544743782
    Total Energy =                        -76.0658354474378200
  Basis Set: (AUG-CC-PVQZ AUX)
  @DF-RHF Final Energy:   -76.06048210270447
    Total Energy =                        -76.0604821027044693
  @DF-RHF Final Energy:   -76.06585050807509
    Total Energy =                        -76.0658505080750729
  @DF-RHF Final Energy: -1417.00228884365561
    Total Energy =                      -1417.0022888436553785
  @DF-RHF Final Energy: -1417.01577973621829
    Total Energy =                      -1417.0157797362182919
  @DF-RHF Final Energy: -1417.00225780465689
    Total Energy =                      -1417.0022578046571198
  @DF-RHF Final Energy: -1417.01577312626091
    Total Energy =                      -1417.0157731262611378
  Multiplicity = 1
  @DF-RHF Final Energy: -1493.06335150914197
    Total Energy =                      -1493.0633515091419667
	 Singles Energy            =      -0.0000000000000000 [Eh]
	 Same-Spin Energy          =      -0.2569946239834801 [Eh]
	 Opposite-Spin Energy      =      -0.7689588796544096 [Eh]
	 Correlation Energy        =      -1.0259535036378895 [Eh]
	 Total Energy              =   -1494.0893050127799597 [Eh]
	 SCS Total Energy          =   -1494.0717670393883054 [Eh]
    Molecular point group: c1

    Geometry (in Angstrom), charge = 0, multiplicity = 1:

       Center              X                  Y                   Z               Mass
    ------------   -----------------  -----------------  -----------------  -----------------
         CL          -0.472595832938     0.920029711145     0.414327886977    34.968852682000
         CL           1.917723367062    -0.655592688855    -0.073956413023    34.968852682000
         CL          -0.694841232938    -1.924664088855    -0.125746313023    34.968852682000
         C            0.289383967062    -0.655503688855     0.594127886977    12.000000000000
         H            0.369251667062    -0.863138288855     1.661172386977     1.007825032230
         O           -1.657320532938     3.722994211145    -0.845885413023    15.994914619570
         H           -2.519904232938     3.495069911145    -1.193162113023     1.007825032230
         H           -1.025055732938     3.691889711145    -1.564297113023     1.007825032230

  Charge       = 0
  Multiplicity = 1
  Basis Set: AUG-CC-PVQZ
    Blend: AUG-CC-PVQZ
  Basis Set: (AUG-CC-PVQZ AUX)
    Blend: AUG-CC-PVQZ-JKFIT

    Orbital Energies [Eh]
    ---------------------

    Doubly Occupied:

       1A   -104.860906     2A   -104.860842     3A   -104.857642
       4A    -20.564420     5A    -11.425746     6A    -10.586757
       7A    -10.586684     8A    -10.583236     9A     -8.053788
      10A     -8.053716    11A     -8.051840    12A     -8.051789
      13A     -8.051767    14A     -8.051716    15A     -8.050230
      16A     -8.048195    17A     -8.048143    18A     -1.352056
      19A     -1.240131    20A     -1.112399    21A     -1.109808
      22A     -0.867785    23A     -0.726771    24A     -0.677589
      25A     -0.624272    26A     -0.623209    27A     -0.579581
      28A     -0.514253    29A     -0.500394    30A     -0.497854
      31A     -0.464777    32A     -0.463546    33A     -0.458563
      34A     -0.446447

  @DF-RHF Final Energy: -1493.08220545371819

   => Energetics <=

    Nuclear Repulsion Energy =            339.0726952365832858
    One-Electron Energy =               -2738.2160983072990348
    Two-Electron Energy =                 906.0611976169979016
    Total Energy =                      -1493.0822054537179611

  Dipole Moment: [D]
     X:    -0.4239      Y:    -0.3839      Z:    -0.6244     Total:     0.8467

  Basis Set: (AUG-CC-PVQZ AUX)
    Blend: AUG-CC-PVQZ-RI
	 Reference Energy          =   -1493.0822054537181884 [Eh]
	 Singles Energy            =      -0.0000000000000000 [Eh]
	 Same-Spin Energy          =      -0.2652564742708111 [Eh]
	 Opposite-Spin Energy      =      -0.8374727397002673 [Eh]
	 Correlation Energy        =      -1.1027292139710783 [Eh]
	 Total Energy              =   -1494.1849346676892765 [Eh]

	 ================> DF-SCS-MP2 Energies <==================
	-----------------------------------------------------------
	 SCS Same-Spin Scale       =       0.3333333333333333 [-]
	 SCS Opposite-Spin Scale   =       1.2000000000000000 [-]
	 SCS Same-Spin Energy      =      -0.0884188247569370 [Eh]
	 SCS Opposite-Spin Energy  =      -1.0049672876403206 [Eh]
	 SCS Correlation Energy    =      -1.0933861123972577 [Eh]
	 SCS Total Energy          =   -1494.1755915661153722 [Eh]
	-----------------------------------------------------------

*** Psi4 exiting successfully. Buy a developer a beer!
