                               Psi4 1.3.2 release

  ==> Input File <==

--------------------------------------------------------------------------
molecule {
0 1
 Cl                 -0.5194035     1.1727966     0.4643278
 Cl                  1.8709157    -0.4028258    -0.0239565
 Cl                 -0.7416489    -1.6718972    -0.0757464
  C                  0.2425763    -0.4027368     0.6441278
  H                  0.3224440    -0.6103714     1.7111723
--
0 1
  O                 -1.8226007     4.2560575    -0.9219068
  H                 -2.6851844     4.0281333    -1.2691836
  H                 -1.1903359     4.2249531    -1.6403186
}
memory 15GB
set_num_threads(4)
psi4_io.set_default_path("/scratch/bdw2292/Psi4-CHCl3")
set maxiter 500
set freeze_core True
set PROPERTIES_ORIGIN ["COM"]
e_dim= energy('mp2/aug-cc-pV[TQ]Z',bsse_type='cp')

psi4.print_out('CP Energy = %10.6f' % (e_dim))
clean()
--------------------------------------------------------------------------

    Molecular point group: c1
  Charge       = 0
  Multiplicity = 1
  Basis Set: AUG-CC-PVTZ
    Blend: AUG-CC-PVTZ
  Basis Set: (AUG-CC-PVTZ AUX)
    Blend: AUG-CC-PVTZ-JKFIT
  @DF-RHF Final Energy:   -76.06044776593509
    Total Energy =                        -76.0604477659350806
  Basis Set: (AUG-CC-PVTZ AUX)
    Blend: AUG-CC-PVTZ-RI
	 Reference Energy          =     -76.0604477659350948 [Eh]
	 Singles Energy            =      -0.0000000000000000 [Eh]
	 Same-Spin Energy          =      -0.0650935079746327 [Eh]
	 Opposite-Spin Energy      =      -0.2029734811959536 [Eh]
	 Correlation Energy        =      -0.2680669891705863 [Eh]
	 Total Energy              =     -76.3285147551056866 [Eh]
	 SCS Total Energy          =     -76.3257137793617773 [Eh]
    Molecular point group: c1
  Basis Set: AUG-CC-PVQZ
    Blend: AUG-CC-PVQZ
  Basis Set: (AUG-CC-PVQZ AUX)
    Blend: AUG-CC-PVQZ-JKFIT
  @DF-RHF Final Energy:   -76.06583544512451
    Total Energy =                        -76.0658354451244918
  Basis Set: (AUG-CC-PVQZ AUX)
  @DF-RHF Final Energy:   -76.06046523821209
    Total Energy =                        -76.0604652382120889
  @DF-RHF Final Energy:   -76.06584689535053
    Total Energy =                        -76.0658468953505320
  @DF-RHF Final Energy: -1417.00228126980801
    Total Energy =                      -1417.0022812698080088
  @DF-RHF Final Energy: -1417.01577838104436
    Total Energy =                      -1417.0157783810441288
  @DF-RHF Final Energy: -1417.00225780464802
    Total Energy =                      -1417.0022578046477975
  @DF-RHF Final Energy: -1417.01577312540348
    Total Energy =                      -1417.0157731254034843
  Multiplicity = 1
  @DF-RHF Final Energy: -1493.06349359193064
    Total Energy =                      -1493.0634935919306372
	 Singles Energy            =      -0.0000000000000000 [Eh]
	 Same-Spin Energy          =      -0.2566859936989195 [Eh]
	 Opposite-Spin Energy      =      -0.7686083396542944 [Eh]
	 Correlation Energy        =      -1.0252943333532141 [Eh]
	 Total Energy              =   -1494.0887879252838957 [Eh]
	 SCS Total Energy          =   -1494.0713855974154285 [Eh]
    Molecular point group: c1

    Geometry (in Angstrom), charge = 0, multiplicity = 1:

       Center              X                  Y                   Z               Mass
    ------------   -----------------  -----------------  -----------------  -----------------
         CL          -0.456897782951     0.882889386815     0.431026182721    34.968852682000
         CL           1.933421417049    -0.692733013185    -0.057258117279    34.968852682000
         CL          -0.679143182951    -1.961804413185    -0.109048017279    34.968852682000
         C            0.305082017049    -0.692644013185     0.610826182721    12.000000000000
         H            0.384949717049    -0.900278613185     1.677870682721     1.007825032230
         O           -1.760094982951     3.966150286815    -0.955208417279    15.994914619570
         H           -2.622678682951     3.738226086815    -1.302485217279     1.007825032230
         H           -1.127830182951     3.935045886815    -1.673620217279     1.007825032230

  Charge       = 0
  Multiplicity = 1
  Basis Set: AUG-CC-PVQZ
    Blend: AUG-CC-PVQZ
  Basis Set: (AUG-CC-PVQZ AUX)
    Blend: AUG-CC-PVQZ-JKFIT

    Orbital Energies [Eh]
    ---------------------

    Doubly Occupied:

       1A   -104.861665     2A   -104.861583     3A   -104.859025
       4A    -20.563737     5A    -11.427186     6A    -10.587504
       7A    -10.587415     8A    -10.584661     9A     -8.054536
      10A     -8.054447    11A     -8.052584    12A     -8.052533
      13A     -8.052494    14A     -8.052442    15A     -8.051669
      16A     -8.049660    17A     -8.049607    18A     -1.350961
      19A     -1.241139    20A     -1.113122    21A     -1.111025
      22A     -0.868804    23A     -0.725786    24A     -0.678595
      25A     -0.625166    26A     -0.623938    27A     -0.578570
      28A     -0.511670    29A     -0.501236    30A     -0.500054
      31A     -0.465561    32A     -0.464592    33A     -0.459910
      34A     -0.447385

  @DF-RHF Final Energy: -1493.08236450612048

   => Energetics <=

    Nuclear Repulsion Energy =            334.6329934433969697
    One-Electron Energy =               -2729.2901987093368916
    Two-Electron Energy =                 901.5748407598192671
    Total Energy =                      -1493.0823645061204843

  Dipole Moment: [D]
     X:    -0.3908      Y:    -0.4572      Z:    -0.6246     Total:     0.8671

  Basis Set: (AUG-CC-PVQZ AUX)
    Blend: AUG-CC-PVQZ-RI
	 Reference Energy          =   -1493.0823645061204843 [Eh]
	 Singles Energy            =      -0.0000000000000000 [Eh]
	 Same-Spin Energy          =      -0.2649396786938198 [Eh]
	 Opposite-Spin Energy      =      -0.8371332250457670 [Eh]
	 Correlation Energy        =      -1.1020729037395869 [Eh]
	 Total Energy              =   -1494.1844374098600383 [Eh]

	 ================> DF-SCS-MP2 Energies <==================
	-----------------------------------------------------------
	 SCS Same-Spin Scale       =       0.3333333333333333 [-]
	 SCS Opposite-Spin Scale   =       1.2000000000000000 [-]
	 SCS Same-Spin Energy      =      -0.0883132262312733 [Eh]
	 SCS Opposite-Spin Energy  =      -1.0045598700549203 [Eh]
	 SCS Correlation Energy    =      -1.0928730962861937 [Eh]
	 SCS Total Energy          =   -1494.1752376024066962 [Eh]
	-----------------------------------------------------------

*** Psi4 exiting successfully. Buy a developer a beer!
