                               Psi4 1.3.2 release

  ==> Input File <==

--------------------------------------------------------------------------
molecule {
0 1
 Cl                 -0.3305712     1.3344966     0.3964185
 Cl                  1.9152338    -0.4658238     0.0056181
 Cl                 -0.8039666    -1.4804745    -0.1359058
  C                  0.2708983    -0.3046174     0.6122043
  H                  0.2919728    -0.5092524     1.6825174
--
0 1
  O                 -2.2821142     3.7626970    -0.7031295
  H                 -2.9586113     3.0866568    -0.7505236
  H                 -1.8968516     3.8656378    -1.5735592
}
memory 15GB
set_num_threads(4)
psi4_io.set_default_path("/scratch/bdw2292/Psi4-CHCl3")
set maxiter 500
set freeze_core True
set PROPERTIES_ORIGIN ["COM"]
e_dim= energy('mp2/aug-cc-pV[TQ]Z',bsse_type='cp')

psi4.print_out('CP Energy = %10.6f' % (e_dim))
clean()
--------------------------------------------------------------------------

    Molecular point group: c1
  Charge       = 0
  Multiplicity = 1
  Basis Set: AUG-CC-PVTZ
    Blend: AUG-CC-PVTZ
  Basis Set: (AUG-CC-PVTZ AUX)
    Blend: AUG-CC-PVTZ-JKFIT
  @DF-RHF Final Energy:   -76.06044359761874
    Total Energy =                        -76.0604435976187290
  Basis Set: (AUG-CC-PVTZ AUX)
    Blend: AUG-CC-PVTZ-RI
	 Reference Energy          =     -76.0604435976187432 [Eh]
	 Singles Energy            =      -0.0000000000000000 [Eh]
	 Same-Spin Energy          =      -0.0650941326716830 [Eh]
	 Opposite-Spin Energy      =      -0.2029755265825034 [Eh]
	 Correlation Energy        =      -0.2680696592541864 [Eh]
	 Total Energy              =     -76.3285132568729239 [Eh]
	 SCS Total Energy          =     -76.3257122737416438 [Eh]
    Molecular point group: c1
  Basis Set: AUG-CC-PVQZ
    Blend: AUG-CC-PVQZ
  Basis Set: (AUG-CC-PVQZ AUX)
    Blend: AUG-CC-PVQZ-JKFIT
  @DF-RHF Final Energy:   -76.06583106471523
    Total Energy =                        -76.0658310647152405
  Basis Set: (AUG-CC-PVQZ AUX)
  @DF-RHF Final Energy:   -76.06047539525603
    Total Energy =                        -76.0604753952560202
  @DF-RHF Final Energy:   -76.06584586395495
    Total Energy =                        -76.0658458639549480
  @DF-RHF Final Energy: -1417.00229039235069
    Total Energy =                      -1417.0022903923506874
  @DF-RHF Final Energy: -1417.01578100476968
    Total Energy =                      -1417.0157810047694511
  @DF-RHF Final Energy: -1417.00225842626742
    Total Energy =                      -1417.0022584262674172
  @DF-RHF Final Energy: -1417.01577392893523
    Total Energy =                      -1417.0157739289352321
  Multiplicity = 1
  @DF-RHF Final Energy: -1493.06319790467364
    Total Energy =                      -1493.0631979046736433
	 Singles Energy            =      -0.0000000000000000 [Eh]
	 Same-Spin Energy          =      -0.2570106167083714 [Eh]
	 Opposite-Spin Energy      =      -0.7689762550378928 [Eh]
	 Correlation Energy        =      -1.0259868717462641 [Eh]
	 Total Energy              =   -1494.0891847764198701 [Eh]
	 SCS Total Energy          =   -1494.0716396162886213 [Eh]
    Molecular point group: c1

    Geometry (in Angstrom), charge = 0, multiplicity = 1:

       Center              X                  Y                   Z               Mass
    ------------   -----------------  -----------------  -----------------  -----------------
         CL          -0.252950435758     1.028238883263     0.361401687937    34.968852682000
         CL           1.992854564242    -0.772081516737    -0.029398712063    34.968852682000
         CL          -0.726345835758    -1.786732216737    -0.170922612063    34.968852682000
         C            0.348519064242    -0.610875116737     0.577187487937    12.000000000000
         H            0.369593564242    -0.815510116737     1.647500587937     1.007825032230
         O           -2.204493435758     3.456439283263    -0.738146312063    15.994914619570
         H           -2.880990535758     2.780399083263    -0.785540412063     1.007825032230
         H           -1.819230835758     3.559380083263    -1.608576012063     1.007825032230

  Charge       = 0
  Multiplicity = 1
  Basis Set: AUG-CC-PVQZ
    Blend: AUG-CC-PVQZ
  Basis Set: (AUG-CC-PVQZ AUX)
    Blend: AUG-CC-PVQZ-JKFIT

    Orbital Energies [Eh]
    ---------------------

    Doubly Occupied:

       1A   -104.863057     2A   -104.862060     3A   -104.859881
       4A    -20.563641     5A    -11.427648     6A    -10.588907
       7A    -10.587887     8A    -10.585517     9A     -8.055938
      10A     -8.054919    11A     -8.053992    12A     -8.053940
      13A     -8.052963    14A     -8.052912    15A     -8.052513
      16A     -8.050487    17A     -8.050433    18A     -1.351304
      19A     -1.242004    20A     -1.114130    21A     -1.111918
      22A     -0.869664    23A     -0.726063    24A     -0.679403
      25A     -0.626141    26A     -0.625092    27A     -0.578836
      28A     -0.514251    29A     -0.502189    30A     -0.499323
      31A     -0.466592    32A     -0.465340    33A     -0.460556
      34A     -0.448256

  @DF-RHF Final Energy: -1493.08205228572729

   => Energetics <=

    Nuclear Repulsion Energy =            339.4055078245459640
    One-Electron Energy =               -2738.7796059993402196
    Two-Electron Energy =                 906.2920458890670261
    Total Energy =                      -1493.0820522857270589

  Dipole Moment: [D]
     X:    -0.5339      Y:    -0.9557      Z:    -0.3634     Total:     1.1535

  Basis Set: (AUG-CC-PVQZ AUX)
    Blend: AUG-CC-PVQZ-RI
	 Reference Energy          =   -1493.0820522857272863 [Eh]
	 Singles Energy            =      -0.0000000000000000 [Eh]
	 Same-Spin Energy          =      -0.2652732214889152 [Eh]
	 Opposite-Spin Energy      =      -0.8374964034612530 [Eh]
	 Correlation Energy        =      -1.1027696249501682 [Eh]
	 Total Energy              =   -1494.1848219106775559 [Eh]

	 ================> DF-SCS-MP2 Energies <==================
	-----------------------------------------------------------
	 SCS Same-Spin Scale       =       0.3333333333333333 [-]
	 SCS Opposite-Spin Scale   =       1.2000000000000000 [-]
	 SCS Same-Spin Energy      =      -0.0884244071629717 [Eh]
	 SCS Opposite-Spin Energy  =      -1.0049956841535035 [Eh]
	 SCS Correlation Energy    =      -1.0934200913164753 [Eh]
	 SCS Total Energy          =   -1494.1754723770436613 [Eh]
	-----------------------------------------------------------

*** Psi4 exiting successfully. Buy a developer a beer!
