                               Psi4 1.3.2 release

  ==> Input File <==

--------------------------------------------------------------------------
molecule {
0 1
 Cl                 -0.0607084     0.3731964    -0.0136444
 Cl                  2.2864943    -1.3072355     0.3117727
 Cl                 -0.3552486    -2.5098910     0.1828073
  C                  0.5792523    -1.1072755     0.6895374
  H                  0.4887905    -1.0243117     1.7725520
--
0 1
 Cl                 -2.4189608     5.7998081    -0.7221101
 Cl                 -0.0811609     4.0750863    -0.6905508
 Cl                 -2.7429456     2.9128507    -0.7348089
  C                 -1.7558892     4.2612923    -0.1830788
  H                 -1.7724137     4.2580700     0.9067636
}
memory 15GB
set_num_threads(4)
psi4_io.set_default_path("/scratch/bdw2292/Psi4-CHCl3")
set maxiter 500
set freeze_core True
set PROPERTIES_ORIGIN ["COM"]
e_dim= energy('mp2/aug-cc-pV[TQ]Z',bsse_type='cp')

psi4.print_out('CP Energy = %10.6f' % (e_dim))
clean()
--------------------------------------------------------------------------

    Molecular point group: c1
  Charge       = 0
  Multiplicity = 1
  Basis Set: AUG-CC-PVTZ
    Blend: AUG-CC-PVTZ
  Basis Set: (AUG-CC-PVTZ AUX)
    Blend: AUG-CC-PVTZ-JKFIT
  @DF-RHF Final Energy: -1417.00225658930503
    Total Energy =                      -1417.0022565893050341
  Basis Set: (AUG-CC-PVTZ AUX)
    Blend: AUG-CC-PVTZ-RI
	 Reference Energy          =   -1417.0022565893050341 [Eh]
	 Singles Energy            =      -0.0000000000000000 [Eh]
	 Same-Spin Energy          =      -0.1911304854817529 [Eh]
	 Opposite-Spin Energy      =      -0.5650644437940591 [Eh]
	 Correlation Energy        =      -0.7561949292758120 [Eh]
	 Total Energy              =   -1417.7584515185808414 [Eh]
	 SCS Total Energy          =   -1417.7440440836851394 [Eh]
    Molecular point group: c1
  Basis Set: AUG-CC-PVQZ
    Blend: AUG-CC-PVQZ
  Basis Set: (AUG-CC-PVQZ AUX)
    Blend: AUG-CC-PVQZ-JKFIT
  @DF-RHF Final Energy: -1417.01577144937073
    Total Energy =                      -1417.0157714493707317
  Basis Set: (AUG-CC-PVQZ AUX)
  @DF-RHF Final Energy: -1417.00231977981866
    Total Energy =                      -1417.0023197798188903
  @DF-RHF Final Energy: -1417.01578689341090
    Total Energy =                      -1417.0157868934111320
  @DF-RHF Final Energy: -1417.00230517399382
    Total Energy =                      -1417.0023051739938182
  @DF-RHF Final Energy: -1417.01578191880253
    Total Energy =                      -1417.0157819188025314
  @DF-RHF Final Energy: -1417.00225657743044
    Total Energy =                      -1417.0022565774304439
  @DF-RHF Final Energy: -1417.01577188248029
    Total Energy =                      -1417.0157718824802942
  Multiplicity = 1
  @DF-RHF Final Energy: -2834.00334506679428
    Total Energy =                      -2834.0033450667942816
	 Singles Energy            =      -0.0000000000000000 [Eh]
	 Same-Spin Energy          =      -0.3840648745745850 [Eh]
	 Opposite-Spin Energy      =      -1.1323428070131603 [Eh]
	 Correlation Energy        =      -1.5164076815877452 [Eh]
	 Total Energy              =   -2835.5197527483819613 [Eh]
	 SCS Total Energy          =   -2835.4901780600680468 [Eh]
    Molecular point group: c1

    Geometry (in Angstrom), charge = 0, multiplicity = 1:

       Center              X                  Y                   Z               Mass
    ------------   -----------------  -----------------  -----------------  -----------------
         CL           0.504730741721    -1.186620752000     0.196249436130    34.968852682000
         CL           2.851933441721    -2.867052652000     0.521666536130    34.968852682000
         CL           0.210190541721    -4.069708152000     0.392701136130    34.968852682000
         C            1.144691441721    -2.667092652000     0.899431236130    12.000000000000
         H            1.054229641721    -2.584128852000     1.982445836130     1.007825032230
         CL          -1.853521658279     4.239990948000    -0.512216263870    34.968852682000
         CL           0.484278241721     2.515269148000    -0.480656963870    34.968852682000
         CL          -2.177506458279     1.353033548000    -0.524915063870    34.968852682000
         C           -1.190450058279     2.701475148000     0.026815036130    12.000000000000
         H           -1.206974558279     2.698252848000     1.116657436130     1.007825032230

  Charge       = 0
  Multiplicity = 1
  Basis Set: AUG-CC-PVQZ
    Blend: AUG-CC-PVQZ
  Basis Set: (AUG-CC-PVQZ AUX)
    Blend: AUG-CC-PVQZ-JKFIT

    Orbital Energies [Eh]
    ---------------------

    Doubly Occupied:

       1A   -104.864738     2A   -104.864734     3A   -104.864692
       4A   -104.863353     5A   -104.863336     6A   -104.862244
       7A    -11.431940     8A    -11.429880     9A    -10.590593
      10A    -10.590551    11A    -10.590532    12A    -10.589166
      13A    -10.589146    14A    -10.588074    15A     -8.057618
      16A     -8.057576    17A     -8.057565    18A     -8.056197
      19A     -8.056179    20A     -8.055655    21A     -8.055612
      22A     -8.055600    23A     -8.055597    24A     -8.055555
      25A     -8.055547    26A     -8.055087    27A     -8.054236
      28A     -8.054218    29A     -8.054184    30A     -8.054166
      31A     -8.053089    32A     -8.053038    33A     -1.245435
      34A     -1.243468    35A     -1.116682    36A     -1.116460
      37A     -1.114834    38A     -1.113968    39A     -0.873490
      40A     -0.871147    41A     -0.683337    42A     -0.680769
      43A     -0.630593    44A     -0.629336    45A     -0.626940
      46A     -0.625703    47A     -0.506519    48A     -0.506364
      49A     -0.502561    50A     -0.502357    51A     -0.473142
      52A     -0.469338    53A     -0.467926    54A     -0.465183
      55A     -0.462790    56A     -0.461733    57A     -0.454229
      58A     -0.446852

  @DF-RHF Final Energy: -2834.03029800290824

   => Energetics <=

    Nuclear Repulsion Energy =            837.2123080887804463
    One-Electron Energy =               -5584.7435086378327469
    Two-Electron Energy =                1913.5009025461438341
    Total Energy =                      -2834.0302980029082391

  Dipole Moment: [D]
     X:    -0.1517      Y:     0.1722      Z:     2.2937     Total:     2.3052

  Basis Set: (AUG-CC-PVQZ AUX)
    Blend: AUG-CC-PVQZ-RI
	 Reference Energy          =   -2834.0302980029082391 [Eh]
	 Singles Energy            =      -0.0000000000000000 [Eh]
	 Same-Spin Energy          =      -0.3964545594696077 [Eh]
	 Opposite-Spin Energy      =      -1.2383254054140573 [Eh]
	 Correlation Energy        =      -1.6347799648836649 [Eh]
	 Total Energy              =   -2835.6650779677920582 [Eh]

	 ================> DF-SCS-MP2 Energies <==================
	-----------------------------------------------------------
	 SCS Same-Spin Scale       =       0.3333333333333333 [-]
	 SCS Opposite-Spin Scale   =       1.2000000000000000 [-]
	 SCS Same-Spin Energy      =      -0.1321515198232026 [Eh]
	 SCS Opposite-Spin Energy  =      -1.4859904864968687 [Eh]
	 SCS Correlation Energy    =      -1.6181420063200713 [Eh]
	 SCS Total Energy          =   -2835.6484400092281248 [Eh]
	-----------------------------------------------------------

*** Psi4 exiting successfully. Buy a developer a beer!
