                               Psi4 1.3.2 release

  ==> Input File <==

--------------------------------------------------------------------------
molecule {
0 1
 Cl                 -0.5194035     1.1727966     0.4643278
 Cl                  1.8709157    -0.4028258    -0.0239565
 Cl                 -0.7416489    -1.6718972    -0.0757464
  C                  0.2425763    -0.4027368     0.6441278
  H                  0.3224440    -0.6103714     1.7111723
--
0 1
  O                 -2.1780181     5.0969469    -1.2999708
  H                 -3.0406018     4.8690226    -1.6472475
  H                 -1.5457533     5.0658424    -2.0183825
}
memory 15GB
set_num_threads(4)
psi4_io.set_default_path("/scratch/bdw2292/Psi4-CHCl3")
set maxiter 500
set freeze_core True
set PROPERTIES_ORIGIN ["COM"]
e_dim= energy('mp2/aug-cc-pV[TQ]Z',bsse_type='cp')

psi4.print_out('CP Energy = %10.6f' % (e_dim))
clean()
--------------------------------------------------------------------------

    Molecular point group: c1
  Charge       = 0
  Multiplicity = 1
  Basis Set: AUG-CC-PVTZ
    Blend: AUG-CC-PVTZ
  Basis Set: (AUG-CC-PVTZ AUX)
    Blend: AUG-CC-PVTZ-JKFIT
  @DF-RHF Final Energy:   -76.06044776805010
    Total Energy =                        -76.0604477680500963
  Basis Set: (AUG-CC-PVTZ AUX)
    Blend: AUG-CC-PVTZ-RI
	 Reference Energy          =     -76.0604477680500963 [Eh]
	 Singles Energy            =      -0.0000000000000000 [Eh]
	 Same-Spin Energy          =      -0.0650935071323049 [Eh]
	 Opposite-Spin Energy      =      -0.2029734783201947 [Eh]
	 Correlation Energy        =      -0.2680669854524996 [Eh]
	 Total Energy              =     -76.3285147535026027 [Eh]
	 SCS Total Energy          =     -76.3257137777450936 [Eh]
    Molecular point group: c1
  Basis Set: AUG-CC-PVQZ
    Blend: AUG-CC-PVQZ
  Basis Set: (AUG-CC-PVQZ AUX)
    Blend: AUG-CC-PVQZ-JKFIT
  @DF-RHF Final Energy:   -76.06583544741807
    Total Energy =                        -76.0658354474180669
  Basis Set: (AUG-CC-PVQZ AUX)
  @DF-RHF Final Energy:   -76.06045361864928
    Total Energy =                        -76.0604536186492766
  @DF-RHF Final Energy:   -76.06583840993703
    Total Energy =                        -76.0658384099370295
  @DF-RHF Final Energy: -1417.00226982944855
    Total Energy =                      -1417.0022698294485508
  @DF-RHF Final Energy: -1417.01577570142786
    Total Energy =                      -1417.0157757014280833
  @DF-RHF Final Energy: -1417.00225780515484
    Total Energy =                      -1417.0022578051548408
  @DF-RHF Final Energy: -1417.01577312603968
    Total Energy =                      -1417.0157731260396758
  Multiplicity = 1
  @DF-RHF Final Energy: -1493.06307717971640
    Total Energy =                      -1493.0630771797164016
	 Singles Energy            =      -0.0000000000000000 [Eh]
	 Same-Spin Energy          =      -0.2563431739922952 [Eh]
	 Opposite-Spin Energy      =      -0.7681901743296540 [Eh]
	 Correlation Energy        =      -1.0245333483219492 [Eh]
	 Total Energy              =   -1494.0876105280383399 [Eh]
	 SCS Total Energy          =   -1494.0703531135761750 [Eh]
    Molecular point group: c1

    Geometry (in Angstrom), charge = 0, multiplicity = 1:

       Center              X                  Y                   Z               Mass
    ------------   -----------------  -----------------  -----------------  -----------------
         CL          -0.409803646238     0.771468393255     0.481121077273    34.968852682000
         CL           1.980515553762    -0.804154006745    -0.007163222727    34.968852682000
         CL          -0.632049046238    -2.073225406745    -0.058953122727    34.968852682000
         C            0.352176153762    -0.804065006745     0.660921077273    12.000000000000
         H            0.432043853762    -1.011699606745     1.727965577273     1.007825032230
         O           -2.068418246238     4.695618693255    -1.283177522727    15.994914619570
         H           -2.931001946238     4.467694393255    -1.630454222727     1.007825032230
         H           -1.436153446238     4.664514193255    -2.001589222727     1.007825032230

  Charge       = 0
  Multiplicity = 1
  Basis Set: AUG-CC-PVQZ
    Blend: AUG-CC-PVQZ
  Basis Set: (AUG-CC-PVQZ AUX)
    Blend: AUG-CC-PVQZ-JKFIT

    Orbital Energies [Eh]
    ---------------------

    Doubly Occupied:

       1A   -104.862841     2A   -104.862748     3A   -104.861315
       4A    -20.562682     5A    -11.429219     6A    -10.588661
       7A    -10.588563     8A    -10.587047     9A     -8.055692
      10A     -8.055594    11A     -8.054071    12A     -8.053734
      13A     -8.053682    14A     -8.053636    15A     -8.053584
      16A     -8.052087    17A     -8.052034    18A     -1.349689
      19A     -1.242750    20A     -1.114245    21A     -1.113125
      22A     -0.870490    23A     -0.724608    24A     -0.680241
      25A     -0.626565    26A     -0.625839    27A     -0.577210
      28A     -0.509108    29A     -0.502670    30A     -0.502564
      31A     -0.466863    32A     -0.466322    33A     -0.461733
      34A     -0.448975

  @DF-RHF Final Energy: -1493.08196761978115

   => Energetics <=

    Nuclear Repulsion Energy =            324.4198204384146607
    One-Electron Energy =               -2708.7832007936040100
    Two-Electron Energy =                 891.2814127354082530
    Total Energy =                      -1493.0819676197811532

  Dipole Moment: [D]
     X:    -0.3440      Y:    -0.5659      Z:    -0.6328     Total:     0.9160

  Basis Set: (AUG-CC-PVQZ AUX)
    Blend: AUG-CC-PVQZ-RI
	 Reference Energy          =   -1493.0819676197811532 [Eh]
	 Singles Energy            =      -0.0000000000000000 [Eh]
	 Same-Spin Energy          =      -0.2645950448887495 [Eh]
	 Opposite-Spin Energy      =      -0.8367552424530852 [Eh]
	 Correlation Energy        =      -1.1013502873418348 [Eh]
	 Total Energy              =   -1494.1833179071229551 [Eh]

	 ================> DF-SCS-MP2 Energies <==================
	-----------------------------------------------------------
	 SCS Same-Spin Scale       =       0.3333333333333333 [-]
	 SCS Opposite-Spin Scale   =       1.2000000000000000 [-]
	 SCS Same-Spin Energy      =      -0.0881983482962498 [Eh]
	 SCS Opposite-Spin Energy  =      -1.0041062909437022 [Eh]
	 SCS Correlation Energy    =      -1.0923046392399520 [Eh]
	 SCS Total Energy          =   -1494.1742722590211088 [Eh]
	-----------------------------------------------------------

*** Psi4 exiting successfully. Buy a developer a beer!
