                               Psi4 1.3.2 release

  ==> Input File <==

--------------------------------------------------------------------------
molecule {
0 1
 Cl                 -0.0607084     0.3731964    -0.0136444
 Cl                  2.2864943    -1.3072355     0.3117727
 Cl                 -0.3552486    -2.5098910     0.1828073
  C                  0.5792523    -1.1072755     0.6895374
  H                  0.4887905    -1.0243117     1.7725520
--
0 1
 Cl                 -2.1622050     5.2170770    -0.8601713
 Cl                  0.1755949     3.4923552    -0.8286120
 Cl                 -2.4861898     2.3301197    -0.8728701
  C                 -1.4991334     3.6785612    -0.3211400
  H                 -1.5156579     3.6753390     0.7687024
}
memory 15GB
set_num_threads(4)
psi4_io.set_default_path("/scratch/bdw2292/Psi4-CHCl3")
set maxiter 500
set freeze_core True
set PROPERTIES_ORIGIN ["COM"]
e_dim= energy('mp2/aug-cc-pV[TQ]Z',bsse_type='cp')

psi4.print_out('CP Energy = %10.6f' % (e_dim))
clean()
--------------------------------------------------------------------------

    Molecular point group: c1
  Charge       = 0
  Multiplicity = 1
  Basis Set: AUG-CC-PVTZ
    Blend: AUG-CC-PVTZ
  Basis Set: (AUG-CC-PVTZ AUX)
    Blend: AUG-CC-PVTZ-JKFIT
  @DF-RHF Final Energy: -1417.00225658957947
    Total Energy =                      -1417.0022565895797015
  Basis Set: (AUG-CC-PVTZ AUX)
    Blend: AUG-CC-PVTZ-RI
	 Reference Energy          =   -1417.0022565895794742 [Eh]
	 Singles Energy            =      -0.0000000000000000 [Eh]
	 Same-Spin Energy          =      -0.1911304860086767 [Eh]
	 Opposite-Spin Energy      =      -0.5650644432220620 [Eh]
	 Correlation Energy        =      -0.7561949292307386 [Eh]
	 Total Energy              =   -1417.7584515188102614 [Eh]
	 SCS Total Energy          =   -1417.7440440834488982 [Eh]
    Molecular point group: c1
  Basis Set: AUG-CC-PVQZ
    Blend: AUG-CC-PVQZ
  Basis Set: (AUG-CC-PVQZ AUX)
    Blend: AUG-CC-PVQZ-JKFIT
  @DF-RHF Final Energy: -1417.01577145018587
    Total Energy =                      -1417.0157714501858663
  Basis Set: (AUG-CC-PVQZ AUX)
  @DF-RHF Final Energy: -1417.00235219301408
    Total Energy =                      -1417.0023521930143033
  @DF-RHF Final Energy: -1417.01579482412330
    Total Energy =                      -1417.0157948241235317
  @DF-RHF Final Energy: -1417.00232937952637
    Total Energy =                      -1417.0023293795261452
  @DF-RHF Final Energy: -1417.01578919657481
    Total Energy =                      -1417.0157891965748149
  @DF-RHF Final Energy: -1417.00225657744227
    Total Energy =                      -1417.0022565774422674
  @DF-RHF Final Energy: -1417.01577188344845
    Total Energy =                      -1417.0157718834484513
  Multiplicity = 1
  @DF-RHF Final Energy: -2833.99631499391307
    Total Energy =                      -2833.9963149939130744
	 Singles Energy            =      -0.0000000000000000 [Eh]
	 Same-Spin Energy          =      -0.3865018784281915 [Eh]
	 Opposite-Spin Energy      =      -1.1352018695992649 [Eh]
	 Correlation Energy        =      -1.5217037480274564 [Eh]
	 Total Energy              =   -2835.5180187419405229 [Eh]
	 SCS Total Energy          =   -2835.4873911969084475 [Eh]
    Molecular point group: c1

    Geometry (in Angstrom), charge = 0, multiplicity = 1:

       Center              X                  Y                   Z               Mass
    ------------   -----------------  -----------------  -----------------  -----------------
         CL           0.376352841721    -0.895255217255     0.265280036130    34.968852682000
         CL           2.723555541721    -2.575687117255     0.590697136130    34.968852682000
         CL           0.081812641721    -3.778342617255     0.461731736130    34.968852682000
         C            1.016313541721    -2.375727117255     0.968461836130    12.000000000000
         H            0.925851741721    -2.292763317255     2.051476436130     1.007825032230
         CL          -1.725143758279     3.948625382745    -0.581246863870    34.968852682000
         CL           0.612656141721     2.223903582745    -0.549687563870    34.968852682000
         CL          -2.049128558279     1.061668082745    -0.593945663870    34.968852682000
         C           -1.062072158279     2.410109582745    -0.042215563870    12.000000000000
         H           -1.078596658279     2.406887382745     1.047626836130     1.007825032230

  Charge       = 0
  Multiplicity = 1
  Basis Set: AUG-CC-PVQZ
    Blend: AUG-CC-PVQZ
  Basis Set: (AUG-CC-PVQZ AUX)
    Blend: AUG-CC-PVQZ-JKFIT

    Orbital Energies [Eh]
    ---------------------

    Doubly Occupied:

       1A   -104.864587     2A   -104.863651     3A   -104.863582
       4A   -104.862415     5A   -104.862404     6A   -104.859887
       7A    -11.431951     8A    -11.428009     9A    -10.590381
      10A    -10.589777    11A    -10.589707    12A    -10.588248
      13A    -10.588232    14A    -10.586130    15A     -8.057412
      16A     -8.056776    17A     -8.056706    18A     -8.055445
      19A     -8.055393    20A     -8.055278    21A     -8.055266
      22A     -8.054837    23A     -8.054767    24A     -8.054754
      25A     -8.054684    26A     -8.053322    27A     -8.053309
      28A     -8.053271    29A     -8.053258    30A     -8.053098
      31A     -8.051013    32A     -8.050953    33A     -1.246155
      34A     -1.242123    35A     -1.118743    36A     -1.116771
      37A     -1.113971    38A     -1.111682    39A     -0.874503
      40A     -0.869836    41A     -0.684943    42A     -0.679251
      43A     -0.635897    44A     -0.630702    45A     -0.625239
      46A     -0.621570    47A     -0.510960    48A     -0.509696
      49A     -0.499671    50A     -0.498326    51A     -0.476866
      52A     -0.470328    53A     -0.468318    54A     -0.466073
      55A     -0.460062    56A     -0.457131    57A     -0.455892
      58A     -0.439158

  @DF-RHF Final Energy: -2834.02328067009921

   => Energetics <=

    Nuclear Repulsion Energy =            873.9540919237235812
    One-Electron Energy =               -5658.2900113382856944
    Two-Electron Energy =                1950.3126387444631291
    Total Energy =                      -2834.0232806700992114

  Dipole Moment: [D]
     X:    -0.1689      Y:     0.2119      Z:     2.2487     Total:     2.2650

  Basis Set: (AUG-CC-PVQZ AUX)
    Blend: AUG-CC-PVQZ-RI
	 Reference Energy          =   -2834.0232806700992114 [Eh]
	 Singles Energy            =      -0.0000000000000000 [Eh]
	 Same-Spin Energy          =      -0.3989826430499230 [Eh]
	 Opposite-Spin Energy      =      -1.2412716852084764 [Eh]
	 Correlation Energy        =      -1.6402543282583995 [Eh]
	 Total Energy              =   -2835.6635349983575907 [Eh]

	 ================> DF-SCS-MP2 Energies <==================
	-----------------------------------------------------------
	 SCS Same-Spin Scale       =       0.3333333333333333 [-]
	 SCS Opposite-Spin Scale   =       1.2000000000000000 [-]
	 SCS Same-Spin Energy      =      -0.1329942143499743 [Eh]
	 SCS Opposite-Spin Energy  =      -1.4895260222501716 [Eh]
	 SCS Correlation Energy    =      -1.6225202366001459 [Eh]
	 SCS Total Energy          =   -2835.6458009066991508 [Eh]
	-----------------------------------------------------------

*** Psi4 exiting successfully. Buy a developer a beer!
