                               Psi4 1.3.2 release

  ==> Input File <==

--------------------------------------------------------------------------
molecule {
0 1
 Cl                 -0.5194035     1.1727966     0.4643278
 Cl                  1.8709157    -0.4028258    -0.0239565
 Cl                 -0.7416489    -1.6718972    -0.0757464
  C                  0.2425763    -0.4027368     0.6441278
  H                  0.3224440    -0.6103714     1.7111723
--
0 1
  O                 -1.4671833     3.4151682    -0.5438428
  H                 -2.3297670     3.1872439    -0.8911196
  H                 -0.8349185     3.3840637    -1.2622546
}
memory 15GB
set_num_threads(4)
psi4_io.set_default_path("/scratch/bdw2292/Psi4-CHCl3")
set maxiter 500
set freeze_core True
set PROPERTIES_ORIGIN ["COM"]
e_dim= energy('mp2/aug-cc-pV[TQ]Z',bsse_type='cp')

psi4.print_out('CP Energy = %10.6f' % (e_dim))
clean()
--------------------------------------------------------------------------

    Molecular point group: c1
  Charge       = 0
  Multiplicity = 1
  Basis Set: AUG-CC-PVTZ
    Blend: AUG-CC-PVTZ
  Basis Set: (AUG-CC-PVTZ AUX)
    Blend: AUG-CC-PVTZ-JKFIT
  @DF-RHF Final Energy:   -76.06044776524681
    Total Energy =                        -76.0604477652468063
  Basis Set: (AUG-CC-PVTZ AUX)
    Blend: AUG-CC-PVTZ-RI
	 Reference Energy          =     -76.0604477652468063 [Eh]
	 Singles Energy            =      -0.0000000000000000 [Eh]
	 Same-Spin Energy          =      -0.0650935082452102 [Eh]
	 Opposite-Spin Energy      =      -0.2029734821195172 [Eh]
	 Correlation Energy        =      -0.2680669903647274 [Eh]
	 Total Energy              =     -76.3285147556115362 [Eh]
	 SCS Total Energy          =     -76.3257137798719612 [Eh]
    Molecular point group: c1
  Basis Set: AUG-CC-PVQZ
    Blend: AUG-CC-PVQZ
  Basis Set: (AUG-CC-PVQZ AUX)
    Blend: AUG-CC-PVQZ-JKFIT
  @DF-RHF Final Energy:   -76.06583544438004
    Total Energy =                        -76.0658354443800278
  Basis Set: (AUG-CC-PVQZ AUX)
  @DF-RHF Final Energy:   -76.06052812283855
    Total Energy =                        -76.0605281228385337
  @DF-RHF Final Energy:   -76.06586449858960
    Total Energy =                        -76.0658644985896188
  @DF-RHF Final Energy: -1417.00233224031922
    Total Energy =                      -1417.0023322403189923
  @DF-RHF Final Energy: -1417.01578430160339
    Total Energy =                      -1417.0157843016033894
  @DF-RHF Final Energy: -1417.00225780520168
    Total Energy =                      -1417.0022578052016797
  @DF-RHF Final Energy: -1417.01577312618929
    Total Energy =                      -1417.0157731261892877
  Multiplicity = 1
  @DF-RHF Final Energy: -1493.05678957121927
    Total Energy =                      -1493.0567895712192694
	 Singles Energy            =      -0.0000000000000000 [Eh]
	 Same-Spin Energy          =      -0.2585996340886781 [Eh]
	 Opposite-Spin Energy      =      -0.7706987248437707 [Eh]
	 Correlation Energy        =      -1.0292983589324489 [Eh]
	 Total Energy              =   -1494.0860879301517343 [Eh]
	 SCS Total Energy          =   -1494.0678279190613011 [Eh]
    Molecular point group: c1

    Geometry (in Angstrom), charge = 0, multiplicity = 1:

       Center              X                  Y                   Z               Mass
    ------------   -----------------  -----------------  -----------------  -----------------
         CL          -0.503991919663     0.994310370090     0.380931286686    34.968852682000
         CL           1.886327280337    -0.581312029910    -0.107353013314    34.968852682000
         CL          -0.726237319663    -1.850383429910    -0.159142913314    34.968852682000
         C            0.257987880337    -0.581223029910     0.560731286686    12.000000000000
         H            0.337855580337    -0.788857629910     1.627775786686     1.007825032230
         O           -1.451771719663     3.236681970090    -0.627239313314    15.994914619570
         H           -2.314355419663     3.008757670090    -0.974516113314     1.007825032230
         H           -0.819506919663     3.205577470090    -1.345651113314     1.007825032230

  Charge       = 0
  Multiplicity = 1
  Basis Set: AUG-CC-PVQZ
    Blend: AUG-CC-PVQZ
  Basis Set: (AUG-CC-PVQZ AUX)
    Blend: AUG-CC-PVQZ-JKFIT

    Orbital Energies [Eh]
    ---------------------

    Doubly Occupied:

       1A   -104.857589     2A   -104.857546     3A   -104.852483
       4A    -20.567248     5A    -11.418486     6A    -10.583472
       7A    -10.583440     8A    -10.578124     9A     -8.050504
      10A     -8.050473    11A     -8.048573    12A     -8.048544
      13A     -8.048523    14A     -8.048494    15A     -8.045052
      16A     -8.042779    17A     -8.042737    18A     -1.359024
      19A     -1.235909    20A     -1.109171    21A     -1.105764
      22A     -0.864091    23A     -0.732688    24A     -0.673936
      25A     -0.626388    26A     -0.620378    27A     -0.583619
      28A     -0.525186    29A     -0.497212    30A     -0.487902
      31A     -0.461684    32A     -0.459351    33A     -0.450974
      34A     -0.443084

  @DF-RHF Final Energy: -1493.07569048937353

   => Energetics <=

    Nuclear Repulsion Energy =            350.4235534326905395
    One-Electron Energy =               -2761.0776352925881838
    Two-Electron Energy =                 917.5783913705242867
    Total Energy =                      -1493.0756904893735282

  Dipole Moment: [D]
     X:    -0.5819      Y:    -0.0467      Z:    -0.6472     Total:     0.8716

  Basis Set: (AUG-CC-PVQZ AUX)
    Blend: AUG-CC-PVQZ-RI
	 Reference Energy          =   -1493.0756904893735282 [Eh]
	 Singles Energy            =      -0.0000000000000000 [Eh]
	 Same-Spin Energy          =      -0.2669232105164859 [Eh]
	 Opposite-Spin Energy      =      -0.8392567672858167 [Eh]
	 Correlation Energy        =      -1.1061799778023025 [Eh]
	 Total Energy              =   -1494.1818704671759406 [Eh]

	 ================> DF-SCS-MP2 Energies <==================
	-----------------------------------------------------------
	 SCS Same-Spin Scale       =       0.3333333333333333 [-]
	 SCS Opposite-Spin Scale   =       1.2000000000000000 [-]
	 SCS Same-Spin Energy      =      -0.0889744035054953 [Eh]
	 SCS Opposite-Spin Energy  =      -1.0071081207429800 [Eh]
	 SCS Correlation Energy    =      -1.0960825242484753 [Eh]
	 SCS Total Energy          =   -1494.1717730136219870 [Eh]
	-----------------------------------------------------------

*** Psi4 exiting successfully. Buy a developer a beer!
