                               Psi4 1.3.2 release

  ==> Input File <==

--------------------------------------------------------------------------
molecule {
0 1
 Cl                 -0.0607084     0.3731964    -0.0136444
 Cl                  2.2864943    -1.3072355     0.3117727
 Cl                 -0.3552486    -2.5098910     0.1828073
  C                  0.5792523    -1.1072755     0.6895374
  H                  0.4887905    -1.0243117     1.7725520
--
0 1
 Cl                 -2.0766198     5.0228334    -0.9061917
 Cl                  0.2611801     3.2981115    -0.8746324
 Cl                 -2.4006045     2.1358760    -0.9188905
  C                 -1.4135481     3.4843176    -0.3671604
  H                 -1.4300726     3.4810953     0.7226820
}
memory 15GB
set_num_threads(4)
psi4_io.set_default_path("/scratch/bdw2292/Psi4-CHCl3")
set maxiter 500
set freeze_core True
set PROPERTIES_ORIGIN ["COM"]
e_dim= energy('mp2/aug-cc-pV[TQ]Z',bsse_type='cp')

psi4.print_out('CP Energy = %10.6f' % (e_dim))
clean()
--------------------------------------------------------------------------

    Molecular point group: c1
  Charge       = 0
  Multiplicity = 1
  Basis Set: AUG-CC-PVTZ
    Blend: AUG-CC-PVTZ
  Basis Set: (AUG-CC-PVTZ AUX)
    Blend: AUG-CC-PVTZ-JKFIT
  @DF-RHF Final Energy: -1417.00225658945533
    Total Energy =                      -1417.0022565894553281
  Basis Set: (AUG-CC-PVTZ AUX)
    Blend: AUG-CC-PVTZ-RI
	 Reference Energy          =   -1417.0022565894553281 [Eh]
	 Singles Energy            =      -0.0000000000000000 [Eh]
	 Same-Spin Energy          =      -0.1911304858030729 [Eh]
	 Opposite-Spin Energy      =      -0.5650644434472207 [Eh]
	 Correlation Energy        =      -0.7561949292502936 [Eh]
	 Total Energy              =   -1417.7584515187056695 [Eh]
	 SCS Total Energy          =   -1417.7440440835264326 [Eh]
    Molecular point group: c1
  Basis Set: AUG-CC-PVQZ
    Blend: AUG-CC-PVQZ
  Basis Set: (AUG-CC-PVQZ AUX)
    Blend: AUG-CC-PVQZ-JKFIT
  @DF-RHF Final Energy: -1417.01577144880662
    Total Energy =                      -1417.0157714488066176
  Basis Set: (AUG-CC-PVQZ AUX)
  @DF-RHF Final Energy: -1417.00236570204470
    Total Energy =                      -1417.0023657020446990
  @DF-RHF Final Energy: -1417.01579928413389
    Total Energy =                      -1417.0157992841336636
  @DF-RHF Final Energy: -1417.00234596499513
    Total Energy =                      -1417.0023459649951292
  @DF-RHF Final Energy: -1417.01579231067512
    Total Energy =                      -1417.0157923106753515
  @DF-RHF Final Energy: -1417.00225657709007
    Total Energy =                      -1417.0022565770900655
  @DF-RHF Final Energy: -1417.01577188259716
    Total Energy =                      -1417.0157718825971642
  Multiplicity = 1
  @DF-RHF Final Energy: -2833.98994227407275
    Total Energy =                      -2833.9899422740727459
	 Singles Energy            =      -0.0000000000000000 [Eh]
	 Same-Spin Energy          =      -0.3879133897522708 [Eh]
	 Opposite-Spin Energy      =      -1.1368512254025911 [Eh]
	 Correlation Energy        =      -1.5247646151548619 [Eh]
	 Total Energy              =   -2835.5147068892274547 [Eh]
	 SCS Total Energy          =   -2835.4834682078067090 [Eh]
    Molecular point group: c1

    Geometry (in Angstrom), charge = 0, multiplicity = 1:

       Center              X                  Y                   Z               Mass
    ------------   -----------------  -----------------  -----------------  -----------------
         CL           0.333560221377    -0.798133387172     0.288290236130    34.968852682000
         CL           2.680762921377    -2.478565287172     0.613707336130    34.968852682000
         CL           0.039020021377    -3.681220787172     0.484741936130    34.968852682000
         C            0.973520921377    -2.278605287172     0.991472036130    12.000000000000
         H            0.883059121377    -2.195641487172     2.074486636130     1.007825032230
         CL          -1.682351178623     3.851503612828    -0.604257063870    34.968852682000
         CL           0.655448721377     2.126781712828    -0.572697763870    34.968852682000
         CL          -2.006335878623     0.964546212828    -0.616955863870    34.968852682000
         C           -1.019279478623     2.312987812828    -0.065225763870    12.000000000000
         H           -1.035803978623     2.309765512828     1.024616636130     1.007825032230

  Charge       = 0
  Multiplicity = 1
  Basis Set: AUG-CC-PVQZ
    Blend: AUG-CC-PVQZ
  Basis Set: (AUG-CC-PVQZ AUX)
    Blend: AUG-CC-PVQZ-JKFIT

    Orbital Energies [Eh]
    ---------------------

    Doubly Occupied:

       1A   -104.864549     2A   -104.862826     3A   -104.862742
       4A   -104.861904     5A   -104.861902     6A   -104.858426
       7A    -11.431994     8A    -11.426891     9A    -10.590338
      10A    -10.589160    11A    -10.589076    12A    -10.587750
      13A    -10.587740    14A    -10.585028    15A     -8.057369
      16A     -8.056133    17A     -8.056050    18A     -8.055400
      19A     -8.055348    20A     -8.054779    21A     -8.054775
      22A     -8.054218    23A     -8.054134    24A     -8.054112
      25A     -8.054028    26A     -8.052826    27A     -8.052822
      28A     -8.052775    29A     -8.052770    30A     -8.051966
      31A     -8.049817    32A     -8.049742    33A     -1.246905
      34A     -1.241289    35A     -1.120457    36A     -1.117046
      37A     -1.113505    38A     -1.110209    39A     -0.875071
      40A     -0.869365    41A     -0.686117    42A     -0.678557
      43A     -0.639363    44A     -0.631617    45A     -0.624381
      46A     -0.619091    47A     -0.514624    48A     -0.511614
      49A     -0.498149    50A     -0.496040    51A     -0.478072
      52A     -0.471456    53A     -0.468476    54A     -0.466576
      55A     -0.458918    56A     -0.457716    57A     -0.452460
      58A     -0.434332

  @DF-RHF Final Energy: -2834.01691949040378

   => Energetics <=

    Nuclear Repulsion Energy =            887.9102755631977288
    One-Electron Energy =               -5686.2328004139826589
    Two-Electron Energy =                1964.3056053603813780
    Total Energy =                      -2834.0169194904037795

  Dipole Moment: [D]
     X:    -0.1768      Y:     0.2295      Z:     2.2239     Total:     2.2427

  Basis Set: (AUG-CC-PVQZ AUX)
    Blend: AUG-CC-PVQZ-RI
	 Reference Energy          =   -2834.0169194904037795 [Eh]
	 Singles Energy            =      -0.0000000000000000 [Eh]
	 Same-Spin Energy          =      -0.4004503170088426 [Eh]
	 Opposite-Spin Energy      =      -1.2429999255164303 [Eh]
	 Correlation Energy        =      -1.6434502425252731 [Eh]
	 Total Energy              =   -2835.6603697329292118 [Eh]

	 ================> DF-SCS-MP2 Energies <==================
	-----------------------------------------------------------
	 SCS Same-Spin Scale       =       0.3333333333333333 [-]
	 SCS Opposite-Spin Scale   =       1.2000000000000000 [-]
	 SCS Same-Spin Energy      =      -0.1334834390029475 [Eh]
	 SCS Opposite-Spin Energy  =      -1.4915999106197164 [Eh]
	 SCS Correlation Energy    =      -1.6250833496226640 [Eh]
	 SCS Total Energy          =   -2835.6420028400266347 [Eh]
	-----------------------------------------------------------

*** Psi4 exiting successfully. Buy a developer a beer!
