                               Psi4 1.3.2 release

  ==> Input File <==

--------------------------------------------------------------------------
molecule {
0 1
 Cl                 -0.3305712     1.3344966     0.3964185
 Cl                  1.9152338    -0.4658238     0.0056181
 Cl                 -0.8039666    -1.4804745    -0.1359058
  C                  0.2708983    -0.3046174     0.6122043
  H                  0.2919728    -0.5092524     1.6825174
--
0 1
  O                 -3.3333303     4.4635610    -1.1619064
  H                 -4.0098273     3.7875209    -1.2093004
  H                 -2.9480676     4.5665019    -2.0323361
}
memory 15GB
set_num_threads(4)
psi4_io.set_default_path("/scratch/bdw2292/Psi4-CHCl3")
set maxiter 500
set freeze_core True
set PROPERTIES_ORIGIN ["COM"]
e_dim= energy('mp2/aug-cc-pV[TQ]Z',bsse_type='cp')

psi4.print_out('CP Energy = %10.6f' % (e_dim))
clean()
--------------------------------------------------------------------------

    Molecular point group: c1
  Charge       = 0
  Multiplicity = 1
  Basis Set: AUG-CC-PVTZ
    Blend: AUG-CC-PVTZ
  Basis Set: (AUG-CC-PVTZ AUX)
    Blend: AUG-CC-PVTZ-JKFIT
  @DF-RHF Final Energy:   -76.06044359927253
    Total Energy =                        -76.0604435992725314
  Basis Set: (AUG-CC-PVTZ AUX)
    Blend: AUG-CC-PVTZ-RI
	 Reference Energy          =     -76.0604435992725314 [Eh]
	 Singles Energy            =      -0.0000000000000000 [Eh]
	 Same-Spin Energy          =      -0.0650941316591211 [Eh]
	 Opposite-Spin Energy      =      -0.2029755230947777 [Eh]
	 Correlation Energy        =      -0.2680696547538989 [Eh]
	 Total Energy              =     -76.3285132540264328 [Eh]
	 SCS Total Energy          =     -76.3257122708726428 [Eh]
    Molecular point group: c1
  Basis Set: AUG-CC-PVQZ
    Blend: AUG-CC-PVQZ
  Basis Set: (AUG-CC-PVQZ AUX)
    Blend: AUG-CC-PVQZ-JKFIT
  @DF-RHF Final Energy:   -76.06583106662815
    Total Energy =                        -76.0658310666281494
  Basis Set: (AUG-CC-PVQZ AUX)
  @DF-RHF Final Energy:   -76.06044895578290
    Total Energy =                        -76.0604489557829027
  @DF-RHF Final Energy:   -76.06583383063121
    Total Energy =                        -76.0658338306311919
  @DF-RHF Final Energy: -1417.00226904345141
    Total Energy =                      -1417.0022690434511787
  @DF-RHF Final Energy: -1417.01577640497089
    Total Energy =                      -1417.0157764049708931
  @DF-RHF Final Energy: -1417.00225842612599
    Total Energy =                      -1417.0022584261259908
  @DF-RHF Final Energy: -1417.01577392801937
    Total Energy =                      -1417.0157739280193709
  Multiplicity = 1
  @DF-RHF Final Energy: -1493.06305228466158
    Total Energy =                      -1493.0630522846615804
	 Singles Energy            =      -0.0000000000000000 [Eh]
	 Same-Spin Energy          =      -0.2563472125724188 [Eh]
	 Opposite-Spin Energy      =      -0.7681926080208958 [Eh]
	 Correlation Energy        =      -1.0245398205933147 [Eh]
	 Total Energy              =   -1494.0875921052549984 [Eh]
	 SCS Total Energy          =   -1494.0703324851440357 [Eh]
    Molecular point group: c1

    Geometry (in Angstrom), charge = 0, multiplicity = 1:

       Center              X                  Y                   Z               Mass
    ------------   -----------------  -----------------  -----------------  -----------------
         CL          -0.113660366672     0.935371776701     0.422191344790    34.968852682000
         CL           2.132144633328    -0.864948623299     0.031390944790    34.968852682000
         CL          -0.587055766672    -1.879599323299    -0.110132955210    34.968852682000
         C            0.487809133328    -0.703742223299     0.637977144790    12.000000000000
         H            0.508883633328    -0.908377223299     1.708290244790     1.007825032230
         O           -3.116419466672     4.064436176701    -1.136133555210    15.994914619570
         H           -3.792916466672     3.388396076701    -1.183527555210     1.007825032230
         H           -2.731156766672     4.167377076701    -2.006563255210     1.007825032230

  Charge       = 0
  Multiplicity = 1
  Basis Set: AUG-CC-PVQZ
    Blend: AUG-CC-PVQZ
  Basis Set: (AUG-CC-PVQZ AUX)
    Blend: AUG-CC-PVQZ-JKFIT

    Orbital Energies [Eh]
    ---------------------

    Doubly Occupied:

       1A   -104.863862     2A   -104.863413     3A   -104.862250
       4A    -20.562395     5A    -11.430060     6A    -10.589684
       7A    -10.589219     8A    -10.587992     9A     -8.056715
      10A     -8.056250    11A     -8.055016    12A     -8.054759
      13A     -8.054707    14A     -8.054290    15A     -8.054237
      16A     -8.053034    17A     -8.052981    18A     -1.349377
      19A     -1.243609    20A     -1.115122    21A     -1.114033
      22A     -0.871348    23A     -0.724329    24A     -0.681073
      25A     -0.627448    26A     -0.626747    27A     -0.576900
      28A     -0.508855    29A     -0.503525    30A     -0.503402
      31A     -0.467781    32A     -0.467206    33A     -0.462529
      34A     -0.449875

  @DF-RHF Final Energy: -1493.08194405893005

   => Energetics <=

    Nuclear Repulsion Energy =            324.9824749591160185
    One-Electron Energy =               -2709.8607847491803113
    Two-Electron Energy =                 891.7963657311341876
    Total Energy =                      -1493.0819440589298210

  Dipole Moment: [D]
     X:    -0.4929      Y:    -1.1101      Z:    -0.3760     Total:     1.2714

  Basis Set: (AUG-CC-PVQZ AUX)
    Blend: AUG-CC-PVQZ-RI
	 Reference Energy          =   -1493.0819440589300484 [Eh]
	 Singles Energy            =      -0.0000000000000000 [Eh]
	 Same-Spin Energy          =      -0.2645993097913967 [Eh]
	 Opposite-Spin Energy      =      -0.8367594207697142 [Eh]
	 Correlation Energy        =      -1.1013587305611110 [Eh]
	 Total Energy              =   -1494.1833027894911083 [Eh]

	 ================> DF-SCS-MP2 Energies <==================
	-----------------------------------------------------------
	 SCS Same-Spin Scale       =       0.3333333333333333 [-]
	 SCS Opposite-Spin Scale   =       1.2000000000000000 [-]
	 SCS Same-Spin Energy      =      -0.0881997699304655 [Eh]
	 SCS Opposite-Spin Energy  =      -1.0041113049236570 [Eh]
	 SCS Correlation Energy    =      -1.0923110748541225 [Eh]
	 SCS Total Energy          =   -1494.1742551337840723 [Eh]
	-----------------------------------------------------------

*** Psi4 exiting successfully. Buy a developer a beer!
