                               Psi4 1.3.2 release

  ==> Input File <==

--------------------------------------------------------------------------
molecule {
0 1
 Cl                 -0.3305712     1.3344966     0.3964185
 Cl                  1.9152338    -0.4658238     0.0056181
 Cl                 -0.8039666    -1.4804745    -0.1359058
  C                  0.2708983    -0.3046174     0.6122043
  H                  0.2919728    -0.5092524     1.6825174
--
0 1
  O                 -1.8879082     3.4998729    -0.5310882
  H                 -2.5644052     2.8238328    -0.5784823
  H                 -1.5026456     3.6028138    -1.4015179
}
memory 15GB
set_num_threads(4)
psi4_io.set_default_path("/scratch/bdw2292/Psi4-CHCl3")
set maxiter 500
set freeze_core True
set PROPERTIES_ORIGIN ["COM"]
e_dim= energy('mp2/aug-cc-pV[TQ]Z',bsse_type='cp')

psi4.print_out('CP Energy = %10.6f' % (e_dim))
clean()
--------------------------------------------------------------------------

    Molecular point group: c1
  Charge       = 0
  Multiplicity = 1
  Basis Set: AUG-CC-PVTZ
    Blend: AUG-CC-PVTZ
  Basis Set: (AUG-CC-PVTZ AUX)
    Blend: AUG-CC-PVTZ-JKFIT
  @DF-RHF Final Energy:   -76.06044360186470
    Total Energy =                        -76.0604436018647050
  Basis Set: (AUG-CC-PVTZ AUX)
    Blend: AUG-CC-PVTZ-RI
	 Reference Energy          =     -76.0604436018647050 [Eh]
	 Singles Energy            =      -0.0000000000000000 [Eh]
	 Same-Spin Energy          =      -0.0650941314457112 [Eh]
	 Opposite-Spin Energy      =      -0.2029755224349582 [Eh]
	 Correlation Energy        =      -0.2680696538806694 [Eh]
	 Total Energy              =     -76.3285132557453778 [Eh]
	 SCS Total Energy          =     -76.3257122726018906 [Eh]
    Molecular point group: c1
  Basis Set: AUG-CC-PVQZ
    Blend: AUG-CC-PVQZ
  Basis Set: (AUG-CC-PVQZ AUX)
    Blend: AUG-CC-PVQZ-JKFIT
  @DF-RHF Final Energy:   -76.06583106929425
    Total Energy =                        -76.0658310692942337
  Basis Set: (AUG-CC-PVQZ AUX)
  @DF-RHF Final Energy:   -76.06051021572762
    Total Energy =                        -76.0605102157276178
  @DF-RHF Final Energy:   -76.06585491073213
    Total Energy =                        -76.0658549107321278
  @DF-RHF Final Energy: -1417.00231823670151
    Total Energy =                      -1417.0023182367012851
  @DF-RHF Final Energy: -1417.01578446826761
    Total Energy =                      -1417.0157844682676114
  @DF-RHF Final Energy: -1417.00225842629357
    Total Energy =                      -1417.0022584262935652
  @DF-RHF Final Energy: -1417.01577392916579
    Total Energy =                      -1417.0157739291657890
  Multiplicity = 1
  @DF-RHF Final Energy: -1493.06009325650803
    Total Energy =                      -1493.0600932565080257
	 Singles Energy            =      -0.0000000000000000 [Eh]
	 Same-Spin Energy          =      -0.2579873988090367 [Eh]
	 Opposite-Spin Energy      =      -0.7700578404765668 [Eh]
	 Correlation Energy        =      -1.0280452392856034 [Eh]
	 Total Energy              =   -1494.0881384957936007 [Eh]
	 SCS Total Energy          =   -1494.0701584646828906 [Eh]
    Molecular point group: c1

    Geometry (in Angstrom), charge = 0, multiplicity = 1:

       Center              X                  Y                   Z               Mass
    ------------   -----------------  -----------------  -----------------  -----------------
         CL          -0.305184207995     1.063064059435     0.338605571308    34.968852682000
         CL           1.940620792005    -0.737256340565    -0.052194828692    34.968852682000
         CL          -0.778579607995    -1.751907040565    -0.193718728692    34.968852682000
         C            0.296285292005    -0.576049940565     0.554391371308    12.000000000000
         H            0.317359792005    -0.780684940565     1.624704471308     1.007825032230
         O           -1.862521207995     3.228440359435    -0.588901128692    15.994914619570
         H           -2.539018207995     2.552400259435    -0.636295228692     1.007825032230
         H           -1.477258607995     3.331381259435    -1.459330828692     1.007825032230

  Charge       = 0
  Multiplicity = 1
  Basis Set: AUG-CC-PVQZ
    Blend: AUG-CC-PVQZ
  Basis Set: (AUG-CC-PVQZ AUX)
    Blend: AUG-CC-PVQZ-JKFIT

    Orbital Energies [Eh]
    ---------------------

    Doubly Occupied:

       1A   -104.861851     2A   -104.860460     3A   -104.857724
       4A    -20.564928     5A    -11.424261     6A    -10.587724
       7A    -10.586309     8A    -10.583394     9A     -8.054756
      10A     -8.053342    11A     -8.052820    12A     -8.052768
      13A     -8.051395    14A     -8.051344    15A     -8.050348
      16A     -8.048213    17A     -8.048155    18A     -1.354856
      19A     -1.240221    20A     -1.112802    21A     -1.110284
      22A     -0.868101    23A     -0.729190    24A     -0.677738
      25A     -0.626064    26A     -0.624367    27A     -0.581831
      28A     -0.521279    29A     -0.500962    30A     -0.493844
      31A     -0.465346    32A     -0.463353    33A     -0.457572
      34A     -0.446548

  @DF-RHF Final Energy: -1493.07895311619086

   => Energetics <=

    Nuclear Repulsion Energy =            347.1780414876836858
    One-Electron Energy =               -2754.3856923973312405
    Two-Electron Energy =                 914.1286977934569222
    Total Energy =                      -1493.0789531161908599

  Dipole Moment: [D]
     X:    -0.5854      Y:    -0.7758      Z:    -0.3695     Total:     1.0397

  Basis Set: (AUG-CC-PVQZ AUX)
    Blend: AUG-CC-PVQZ-RI
	 Reference Energy          =   -1493.0789531161908599 [Eh]
	 Singles Energy            =      -0.0000000000000000 [Eh]
	 Same-Spin Energy          =      -0.2662843010828744 [Eh]
	 Opposite-Spin Energy      =      -0.8385866163727361 [Eh]
	 Correlation Energy        =      -1.1048709174556106 [Eh]
	 Total Energy              =   -1494.1838240336464878 [Eh]

	 ================> DF-SCS-MP2 Energies <==================
	-----------------------------------------------------------
	 SCS Same-Spin Scale       =       0.3333333333333333 [-]
	 SCS Opposite-Spin Scale   =       1.2000000000000000 [-]
	 SCS Same-Spin Energy      =      -0.0887614336942915 [Eh]
	 SCS Opposite-Spin Energy  =      -1.0063039396472833 [Eh]
	 SCS Correlation Energy    =      -1.0950653733415747 [Eh]
	 SCS Total Energy          =   -1494.1740184895325001 [Eh]
	-----------------------------------------------------------

*** Psi4 exiting successfully. Buy a developer a beer!
