                               Psi4 1.3.2 release

  ==> Input File <==

--------------------------------------------------------------------------
molecule {
0 1
 Cl                 -0.5194035     1.1727966     0.4643278
 Cl                  1.8709157    -0.4028258    -0.0239565
 Cl                 -0.7416489    -1.6718972    -0.0757464
  C                  0.2425763    -0.4027368     0.6441278
  H                  0.3224440    -0.6103714     1.7111723
--
0 1
  O                 -1.9410732     4.5363540    -1.0479281
  H                 -2.8036569     4.3084297    -1.3952049
  H                 -1.3088084     4.5052495    -1.7663399
}
memory 15GB
set_num_threads(4)
psi4_io.set_default_path("/scratch/bdw2292/Psi4-CHCl3")
set maxiter 500
set freeze_core True
set PROPERTIES_ORIGIN ["COM"]
e_dim= energy('mp2/aug-cc-pV[TQ]Z',bsse_type='cp')

psi4.print_out('CP Energy = %10.6f' % (e_dim))
clean()
--------------------------------------------------------------------------

    Molecular point group: c1
  Charge       = 0
  Multiplicity = 1
  Basis Set: AUG-CC-PVTZ
    Blend: AUG-CC-PVTZ
  Basis Set: (AUG-CC-PVTZ AUX)
    Blend: AUG-CC-PVTZ-JKFIT
  @DF-RHF Final Energy:   -76.06044776525016
    Total Energy =                        -76.0604477652501600
  Basis Set: (AUG-CC-PVTZ AUX)
    Blend: AUG-CC-PVTZ-RI
	 Reference Energy          =     -76.0604477652501600 [Eh]
	 Singles Energy            =      -0.0000000000000000 [Eh]
	 Same-Spin Energy          =      -0.0650935082452105 [Eh]
	 Opposite-Spin Energy      =      -0.2029734821195283 [Eh]
	 Correlation Energy        =      -0.2680669903647387 [Eh]
	 Total Energy              =     -76.3285147556149042 [Eh]
	 SCS Total Energy          =     -76.3257137798753291 [Eh]
    Molecular point group: c1
  Basis Set: AUG-CC-PVQZ
    Blend: AUG-CC-PVQZ
  Basis Set: (AUG-CC-PVQZ AUX)
    Blend: AUG-CC-PVQZ-JKFIT
  @DF-RHF Final Energy:   -76.06583544435651
    Total Energy =                        -76.0658354443565088
  Basis Set: (AUG-CC-PVQZ AUX)
  @DF-RHF Final Energy:   -76.06046013782220
    Total Energy =                        -76.0604601378222043
  @DF-RHF Final Energy:   -76.06584174108316
    Total Energy =                        -76.0658417410831476
  @DF-RHF Final Energy: -1417.00227640696016
    Total Energy =                      -1417.0022764069603909
  @DF-RHF Final Energy: -1417.01577727754511
    Total Energy =                      -1417.0157772775451122
  @DF-RHF Final Energy: -1417.00225780496066
    Total Energy =                      -1417.0022578049608910
  @DF-RHF Final Energy: -1417.01577312558516
    Total Energy =                      -1417.0157731255851559
  Multiplicity = 1
  @DF-RHF Final Energy: -1493.06336298841438
    Total Energy =                      -1493.0633629884143829
	 Singles Energy            =      -0.0000000000000000 [Eh]
	 Same-Spin Energy          =      -0.2565092388269029 [Eh]
	 Opposite-Spin Energy      =      -0.7683978787401174 [Eh]
	 Correlation Energy        =      -1.0249071175670204 [Eh]
	 Total Energy              =   -1494.0882701059813371 [Eh]
	 SCS Total Energy          =   -1494.0709435225114703 [Eh]
    Molecular point group: c1

    Geometry (in Angstrom), charge = 0, multiplicity = 1:

       Center              X                  Y                   Z               Mass
    ------------   -----------------  -----------------  -----------------  -----------------
         CL          -0.441199732963     0.845749052200     0.447724476983    34.968852682000
         CL           1.949119467037    -0.729873347800    -0.040559823017    34.968852682000
         CL          -0.663445132963    -1.998944747800    -0.092349723017    34.968852682000
         C            0.320780067037    -0.729784347800     0.627524476983    12.000000000000
         H            0.400647767037    -0.937418947800     1.694568976983     1.007825032230
         O           -1.862869432963     4.209306452200    -1.064531423017    15.994914619570
         H           -2.725453132963     3.981382152200    -1.411808223017     1.007825032230
         H           -1.230604632963     4.178201952200    -1.782943223017     1.007825032230

  Charge       = 0
  Multiplicity = 1
  Basis Set: AUG-CC-PVQZ
    Blend: AUG-CC-PVQZ
  Basis Set: (AUG-CC-PVQZ AUX)
    Blend: AUG-CC-PVQZ-JKFIT

    Orbital Energies [Eh]
    ---------------------

    Doubly Occupied:

       1A   -104.862183     2A   -104.862092     3A   -104.860010
       4A    -20.563247     5A    -11.428109     6A    -10.588013
       7A    -10.587916     8A    -10.585686     9A     -8.055044
      10A     -8.054948    11A     -8.053090    12A     -8.053038
      13A     -8.052992    14A     -8.052941    15A     -8.052702
      16A     -8.050706    17A     -8.050653    18A     -1.350324
      19A     -1.241841    20A     -1.113614    21A     -1.111924
      22A     -0.869535    23A     -0.725201    24A     -0.679309
      25A     -0.625779    26A     -0.624697    27A     -0.577911
      28A     -0.510256    29A     -0.501847    30A     -0.501325
      31A     -0.466120    32A     -0.465333    33A     -0.460746
      34A     -0.448067

  @DF-RHF Final Energy: -1493.08224175700843

   => Energetics <=

    Nuclear Repulsion Energy =            330.7827952614668447
    One-Electron Energy =               -2721.5556783036563502
    Two-Electron Energy =                 897.6906412851810728
    Total Energy =                      -1493.0822417570082052

  Dipole Moment: [D]
     X:    -0.3692      Y:    -0.5062      Z:    -0.6268     Total:     0.8863

  Basis Set: (AUG-CC-PVQZ AUX)
    Blend: AUG-CC-PVQZ-RI
	 Reference Energy          =   -1493.0822417570084326 [Eh]
	 Singles Energy            =      -0.0000000000000000 [Eh]
	 Same-Spin Energy          =      -0.2647608996969226 [Eh]
	 Opposite-Spin Energy      =      -0.8369385841111989 [Eh]
	 Correlation Energy        =      -1.1016994838081215 [Eh]
	 Total Energy              =   -1494.1839412408164662 [Eh]

	 ================> DF-SCS-MP2 Energies <==================
	-----------------------------------------------------------
	 SCS Same-Spin Scale       =       0.3333333333333333 [-]
	 SCS Opposite-Spin Scale   =       1.2000000000000000 [-]
	 SCS Same-Spin Energy      =      -0.0882536332323075 [Eh]
	 SCS Opposite-Spin Energy  =      -1.0043263009334387 [Eh]
	 SCS Correlation Energy    =      -1.0925799341657463 [Eh]
	 SCS Total Energy          =   -1494.1748216911742020 [Eh]
	-----------------------------------------------------------

*** Psi4 exiting successfully. Buy a developer a beer!
