                               Psi4 1.3.2 release

  ==> Input File <==

--------------------------------------------------------------------------
molecule {
0 1
 Cl                 -0.0607084     0.3731964    -0.0136444
 Cl                  2.2864943    -1.3072355     0.3117727
 Cl                 -0.3552486    -2.5098910     0.1828073
  C                  0.5792523    -1.1072755     0.6895374
  H                  0.4887905    -1.0243117     1.7725520
--
0 1
 Cl                 -2.5901313     6.1882954    -0.6300693
 Cl                 -0.2523314     4.4635736    -0.5985100
 Cl                 -2.9141161     3.3013381    -0.6427681
  C                 -1.9270597     4.6497796    -0.0910380
  H                 -1.9435842     4.6465574     0.9988044
}
memory 15GB
set_num_threads(4)
psi4_io.set_default_path("/scratch/bdw2292/Psi4-CHCl3")
set maxiter 500
set freeze_core True
set PROPERTIES_ORIGIN ["COM"]
e_dim= energy('mp2/aug-cc-pV[TQ]Z',bsse_type='cp')

psi4.print_out('CP Energy = %10.6f' % (e_dim))
clean()
--------------------------------------------------------------------------

    Molecular point group: c1
  Charge       = 0
  Multiplicity = 1
  Basis Set: AUG-CC-PVTZ
    Blend: AUG-CC-PVTZ
  Basis Set: (AUG-CC-PVTZ AUX)
    Blend: AUG-CC-PVTZ-JKFIT
  @DF-RHF Final Energy: -1417.00225658931527
    Total Energy =                      -1417.0022565893152660
  Basis Set: (AUG-CC-PVTZ AUX)
    Blend: AUG-CC-PVTZ-RI
	 Reference Energy          =   -1417.0022565893152660 [Eh]
	 Singles Energy            =      -0.0000000000000000 [Eh]
	 Same-Spin Energy          =      -0.1911304860090853 [Eh]
	 Opposite-Spin Energy      =      -0.5650644432247887 [Eh]
	 Correlation Energy        =      -0.7561949292338740 [Eh]
	 Total Energy              =   -1417.7584515185492364 [Eh]
	 SCS Total Energy          =   -1417.7440440831881006 [Eh]
    Molecular point group: c1
  Basis Set: AUG-CC-PVQZ
    Blend: AUG-CC-PVQZ
  Basis Set: (AUG-CC-PVQZ AUX)
    Blend: AUG-CC-PVQZ-JKFIT
  @DF-RHF Final Energy: -1417.01577144977477
    Total Energy =                      -1417.0157714497750021
  Basis Set: (AUG-CC-PVQZ AUX)
  @DF-RHF Final Energy: -1417.00229343875981
    Total Energy =                      -1417.0022934387598070
  @DF-RHF Final Energy: -1417.01578281828074
    Total Energy =                      -1417.0157828182807407
  @DF-RHF Final Energy: -1417.00229155775423
    Total Energy =                      -1417.0022915577542335
  @DF-RHF Final Energy: -1417.01577930585154
    Total Energy =                      -1417.0157793058515381
  @DF-RHF Final Energy: -1417.00225657710257
    Total Energy =                      -1417.0022565771025711
  @DF-RHF Final Energy: -1417.01577188226520
    Total Energy =                      -1417.0157718822651987
  Multiplicity = 1
  @DF-RHF Final Energy: -2834.00427492212066
    Total Energy =                      -2834.0042749221206577
	 Singles Energy            =      -0.0000000000000000 [Eh]
	 Same-Spin Energy          =      -0.3833057488183433 [Eh]
	 Opposite-Spin Energy      =      -1.1314284765416178 [Eh]
	 Correlation Energy        =      -1.5147342253599612 [Eh]
	 Total Energy              =   -2835.5190091474805740 [Eh]
	 SCS Total Energy          =   -2835.4897576769099032 [Eh]
    Molecular point group: c1

    Geometry (in Angstrom), charge = 0, multiplicity = 1:

       Center              X                  Y                   Z               Mass
    ------------   -----------------  -----------------  -----------------  -----------------
         CL           0.590315991721    -1.380864417255     0.150229036130    34.968852682000
         CL           2.937518691721    -3.061296317255     0.475646136130    34.968852682000
         CL           0.295775791721    -4.263951817255     0.346680736130    34.968852682000
         C            1.230276691721    -2.861336317255     0.853410836130    12.000000000000
         H            1.139814891721    -2.778372517255     1.936425436130     1.007825032230
         CL          -1.939106908279     4.434234582745    -0.466195863870    34.968852682000
         CL           0.398692991721     2.709512782745    -0.434636563870    34.968852682000
         CL          -2.263091708279     1.547277282745    -0.478894663870    34.968852682000
         C           -1.276035308279     2.895718782745     0.072835436130    12.000000000000
         H           -1.292559808279     2.892496582745     1.162677836130     1.007825032230

  Charge       = 0
  Multiplicity = 1
  Basis Set: AUG-CC-PVQZ
    Blend: AUG-CC-PVQZ
  Basis Set: (AUG-CC-PVQZ AUX)
    Blend: AUG-CC-PVQZ-JKFIT

    Orbital Energies [Eh]
    ---------------------

    Doubly Occupied:

       1A   -104.864857     2A   -104.864825     3A   -104.864764
       4A   -104.863673     5A   -104.863657     6A   -104.862933
       7A    -11.431921     8A    -11.430431     9A    -10.590671
      10A    -10.590638    11A    -10.590558    12A    -10.589480
      13A    -10.589462    14A    -10.588712    15A     -8.057700
      16A     -8.057668    17A     -8.057589    18A     -8.056511
      19A     -8.056494    20A     -8.055735    21A     -8.055734
      22A     -8.055703    23A     -8.055680    24A     -8.055648
      25A     -8.055624    26A     -8.055571    27A     -8.054549
      28A     -8.054532    29A     -8.054496    30A     -8.054480
      31A     -8.053753    32A     -8.053701    33A     -1.245309
      34A     -1.243877    35A     -1.116361    36A     -1.116353
      37A     -1.115133    38A     -1.114573    39A     -0.873213
      40A     -0.871650    41A     -0.682959    42A     -0.681315
      43A     -0.629427    44A     -0.628997    45A     -0.627493
      46A     -0.626855    47A     -0.505650    48A     -0.505492
      49A     -0.503449    50A     -0.503394    51A     -0.471384
      52A     -0.469222    53A     -0.468021    54A     -0.465731
      55A     -0.464090    56A     -0.462574    57A     -0.452838
      58A     -0.448931

  @DF-RHF Final Energy: -2834.03125059949843

   => Energetics <=

    Nuclear Repulsion Energy =            816.4363750691386485
    One-Electron Energy =               -5543.1711737985360742
    Two-Electron Energy =                1892.7035481298994455
    Total Energy =                      -2834.0312505994984349

  Dipole Moment: [D]
     X:    -0.1433      Y:     0.1525      Z:     2.3093     Total:     2.3188

  Basis Set: (AUG-CC-PVQZ AUX)
    Blend: AUG-CC-PVQZ-RI
	 Reference Energy          =   -2834.0312505994984349 [Eh]
	 Singles Energy            =      -0.0000000000000000 [Eh]
	 Same-Spin Energy          =      -0.3956745903090231 [Eh]
	 Opposite-Spin Energy      =      -1.2374256212326558 [Eh]
	 Correlation Energy        =      -1.6331002115416788 [Eh]
	 Total Energy              =   -2835.6643508110400944 [Eh]

	 ================> DF-SCS-MP2 Energies <==================
	-----------------------------------------------------------
	 SCS Same-Spin Scale       =       0.3333333333333333 [-]
	 SCS Opposite-Spin Scale   =       1.2000000000000000 [-]
	 SCS Same-Spin Energy      =      -0.1318915301030077 [Eh]
	 SCS Opposite-Spin Energy  =      -1.4849107454791868 [Eh]
	 SCS Correlation Energy    =      -1.6168022755821945 [Eh]
	 SCS Total Energy          =   -2835.6480528750807935 [Eh]
	-----------------------------------------------------------

*** Psi4 exiting successfully. Buy a developer a beer!
