                               Psi4 1.3.2 release

  ==> Input File <==

--------------------------------------------------------------------------
molecule {
0 1
 Cl                 -0.0607084     0.3731964    -0.0136444
 Cl                  2.2864943    -1.3072355     0.3117727
 Cl                 -0.3552486    -2.5098910     0.1828073
  C                  0.5792523    -1.1072755     0.6895374
  H                  0.4887905    -1.0243117     1.7725520
--
0 1
 Cl                 -2.2477903     5.4113207    -0.8141509
 Cl                  0.0900096     3.6865989    -0.7825916
 Cl                 -2.5717751     2.5243634    -0.8268497
  C                 -1.5847187     3.8728049    -0.2751196
  H                 -1.6012431     3.8695826     0.8147228
}
memory 15GB
set_num_threads(4)
psi4_io.set_default_path("/scratch/bdw2292/Psi4-CHCl3")
set maxiter 500
set freeze_core True
set PROPERTIES_ORIGIN ["COM"]
e_dim= energy('mp2/aug-cc-pV[TQ]Z',bsse_type='cp')

psi4.print_out('CP Energy = %10.6f' % (e_dim))
clean()
--------------------------------------------------------------------------

    Molecular point group: c1
  Charge       = 0
  Multiplicity = 1
  Basis Set: AUG-CC-PVTZ
    Blend: AUG-CC-PVTZ
  Basis Set: (AUG-CC-PVTZ AUX)
    Blend: AUG-CC-PVTZ-JKFIT
  @DF-RHF Final Energy: -1417.00225658939075
    Total Energy =                      -1417.0022565893905266
  Basis Set: (AUG-CC-PVTZ AUX)
    Blend: AUG-CC-PVTZ-RI
	 Reference Energy          =   -1417.0022565893907540 [Eh]
	 Singles Energy            =      -0.0000000000000000 [Eh]
	 Same-Spin Energy          =      -0.1911304860041671 [Eh]
	 Opposite-Spin Energy      =      -0.5650644432091531 [Eh]
	 Correlation Energy        =      -0.7561949292133201 [Eh]
	 Total Energy              =   -1417.7584515186040335 [Eh]
	 SCS Total Energy          =   -1417.7440440832431250 [Eh]
    Molecular point group: c1
  Basis Set: AUG-CC-PVQZ
    Blend: AUG-CC-PVQZ
  Basis Set: (AUG-CC-PVQZ AUX)
    Blend: AUG-CC-PVQZ-JKFIT
  @DF-RHF Final Energy: -1417.01577145011356
    Total Energy =                      -1417.0157714501133341
  Basis Set: (AUG-CC-PVQZ AUX)
  @DF-RHF Final Energy: -1417.00234173920285
    Total Energy =                      -1417.0023417392028477
  @DF-RHF Final Energy: -1417.01579165113276
    Total Energy =                      -1417.0157916511325311
  @DF-RHF Final Energy: -1417.00231871166829
    Total Energy =                      -1417.0023187116682948
  @DF-RHF Final Energy: -1417.01578636535646
    Total Energy =                      -1417.0157863653566892
  @DF-RHF Final Energy: -1417.00225657758529
    Total Energy =                      -1417.0022565775852854
  @DF-RHF Final Energy: -1417.01577188260717
    Total Energy =                      -1417.0157718826071687
  Multiplicity = 1
  @DF-RHF Final Energy: -2834.00005325806524
    Total Energy =                      -2834.0000532580652362
	 Singles Energy            =      -0.0000000000000000 [Eh]
	 Same-Spin Energy          =      -0.3854414824308113 [Eh]
	 Opposite-Spin Energy      =      -1.1339630962660152 [Eh]
	 Correlation Energy        =      -1.5194045786968267 [Eh]
	 Total Energy              =   -2835.5194578367622853 [Eh]
	 SCS Total Energy          =   -2835.4892894677282129 [Eh]
    Molecular point group: c1

    Geometry (in Angstrom), charge = 0, multiplicity = 1:

       Center              X                  Y                   Z               Mass
    ------------   -----------------  -----------------  -----------------  -----------------
         CL           0.419145491293    -0.992377066828     0.242269836130    34.968852682000
         CL           2.766348191293    -2.672808966828     0.567686936130    34.968852682000
         CL           0.124605291293    -3.875464466828     0.438721536130    34.968852682000
         C            1.059106191293    -2.472848966828     0.945451636130    12.000000000000
         H            0.968644391293    -2.389885166828     2.028466236130     1.007825032230
         CL          -1.767936408707     4.045747233172    -0.558236663870    34.968852682000
         CL           0.569863491293     2.321025433172    -0.526677363870    34.968852682000
         CL          -2.091921208707     1.158789933172    -0.570935463870    34.968852682000
         C           -1.104864808707     2.507231433172    -0.019205363870    12.000000000000
         H           -1.121389208707     2.504009133172     1.070637036130     1.007825032230

  Charge       = 0
  Multiplicity = 1
  Basis Set: AUG-CC-PVQZ
    Blend: AUG-CC-PVQZ
  Basis Set: (AUG-CC-PVQZ AUX)
    Blend: AUG-CC-PVQZ-JKFIT

    Orbital Energies [Eh]
    ---------------------

    Doubly Occupied:

       1A   -104.864646     2A   -104.864203     3A   -104.864145
       4A   -104.862813     5A   -104.862798     6A   -104.860943
       7A    -11.431941     8A    -11.428839     9A    -10.590443
      10A    -10.590195    11A    -10.590136    12A    -10.588637
      13A    -10.588618    14A    -10.586968    15A     -8.057474
      16A     -8.057208    17A     -8.057150    18A     -8.055668
      19A     -8.055651    20A     -8.055508    21A     -8.055455
      22A     -8.055256    23A     -8.055197    24A     -8.055187
      25A     -8.055127    26A     -8.053958    27A     -8.053710
      28A     -8.053693    29A     -8.053658    30A     -8.053641
      31A     -8.051915    32A     -8.051862    33A     -1.245760
      34A     -1.242725    35A     -1.117679    36A     -1.116620
      37A     -1.114336    38A     -1.112731    39A     -0.874057
      40A     -0.870334    41A     -0.684178    42A     -0.679862
      43A     -0.633410    44A     -0.630069    45A     -0.625950
      46A     -0.623406    47A     -0.508672    48A     -0.508278
      49A     -0.500900    50A     -0.500127    51A     -0.475543
      52A     -0.469719    53A     -0.468119    54A     -0.465658
      55A     -0.461003    56A     -0.458586    57A     -0.456191
      58A     -0.442634

  @DF-RHF Final Energy: -2834.02700953813201

   => Energetics <=

    Nuclear Repulsion Energy =            860.8880769962548811
    One-Electron Energy =               -5632.1317937112535219
    Two-Electron Energy =                1937.2167071768660662
    Total Energy =                      -2834.0270095381320061

  Dipole Moment: [D]
     X:    -0.1623      Y:     0.1969      Z:     2.2678     Total:     2.2822

  Basis Set: (AUG-CC-PVQZ AUX)
    Blend: AUG-CC-PVQZ-RI
	 Reference Energy          =   -2834.0270095381320061 [Eh]
	 Singles Energy            =      -0.0000000000000000 [Eh]
	 Same-Spin Energy          =      -0.3978812790406507 [Eh]
	 Opposite-Spin Energy      =      -1.2399828263836217 [Eh]
	 Correlation Energy        =      -1.6378641054242724 [Eh]
	 Total Energy              =   -2835.6648736435563478 [Eh]

	 ================> DF-SCS-MP2 Energies <==================
	-----------------------------------------------------------
	 SCS Same-Spin Scale       =       0.3333333333333333 [-]
	 SCS Opposite-Spin Scale   =       1.2000000000000000 [-]
	 SCS Same-Spin Energy      =      -0.1326270930135502 [Eh]
	 SCS Opposite-Spin Energy  =      -1.4879793916603459 [Eh]
	 SCS Correlation Energy    =      -1.6206064846738961 [Eh]
	 SCS Total Energy          =   -2835.6476160228057779 [Eh]
	-----------------------------------------------------------

*** Psi4 exiting successfully. Buy a developer a beer!
