                               Psi4 1.3.2 release

  ==> Input File <==

--------------------------------------------------------------------------
molecule {
0 1
 Cl                 -0.3305712     1.3344966     0.3964185
 Cl                  1.9152338    -0.4658238     0.0056181
 Cl                 -0.8039666    -1.4804745    -0.1359058
  C                  0.2708983    -0.3046174     0.6122043
  H                  0.2919728    -0.5092524     1.6825174
--
0 1
  O                 -2.5449182     3.9379130    -0.8178237
  H                 -3.2214153     3.2618728    -0.8652178
  H                 -2.1596556     4.0408538    -1.6882534
}
memory 15GB
set_num_threads(4)
psi4_io.set_default_path("/scratch/bdw2292/Psi4-CHCl3")
set maxiter 500
set freeze_core True
set PROPERTIES_ORIGIN ["COM"]
e_dim= energy('mp2/aug-cc-pV[TQ]Z',bsse_type='cp')

psi4.print_out('CP Energy = %10.6f' % (e_dim))
clean()
--------------------------------------------------------------------------

    Molecular point group: c1
  Charge       = 0
  Multiplicity = 1
  Basis Set: AUG-CC-PVTZ
    Blend: AUG-CC-PVTZ
  Basis Set: (AUG-CC-PVTZ AUX)
    Blend: AUG-CC-PVTZ-JKFIT
  @DF-RHF Final Energy:   -76.06044359760615
    Total Energy =                        -76.0604435976061382
  Basis Set: (AUG-CC-PVTZ AUX)
    Blend: AUG-CC-PVTZ-RI
	 Reference Energy          =     -76.0604435976061524 [Eh]
	 Singles Energy            =      -0.0000000000000000 [Eh]
	 Same-Spin Energy          =      -0.0650941326716830 [Eh]
	 Opposite-Spin Energy      =      -0.2029755265824826 [Eh]
	 Correlation Energy        =      -0.2680696592541656 [Eh]
	 Total Energy              =     -76.3285132568603188 [Eh]
	 SCS Total Energy          =     -76.3257122737290246 [Eh]
    Molecular point group: c1
  Basis Set: AUG-CC-PVQZ
    Blend: AUG-CC-PVQZ
  Basis Set: (AUG-CC-PVQZ AUX)
    Blend: AUG-CC-PVQZ-JKFIT
  @DF-RHF Final Energy:   -76.06583106469508
    Total Energy =                        -76.0658310646950753
  Basis Set: (AUG-CC-PVQZ AUX)
  @DF-RHF Final Energy:   -76.06046001156045
    Total Energy =                        -76.0604600115604512
  @DF-RHF Final Energy:   -76.06584207044587
    Total Energy =                        -76.0658420704458820
  @DF-RHF Final Energy: -1417.00228217762674
    Total Energy =                      -1417.0022821776267392
  @DF-RHF Final Energy: -1417.01577943395159
    Total Energy =                      -1417.0157794339515931
  @DF-RHF Final Energy: -1417.00225842663713
    Total Energy =                      -1417.0022584266371268
  @DF-RHF Final Energy: -1417.01577392842137
    Total Energy =                      -1417.0157739284215950
  Multiplicity = 1
  @DF-RHF Final Energy: -1493.06340272963598
    Total Energy =                      -1493.0634027296359818
	 Singles Energy            =      -0.0000000000000000 [Eh]
	 Same-Spin Energy          =      -0.2566999792161248 [Eh]
	 Opposite-Spin Energy      =      -0.7686209000600336 [Eh]
	 Correlation Energy        =      -1.0253208792761583 [Eh]
	 Total Energy              =   -1494.0887236089122325 [Eh]
	 SCS Total Energy          =   -1494.0713144694466337 [Eh]
    Molecular point group: c1

    Geometry (in Angstrom), charge = 0, multiplicity = 1:

       Center              X                  Y                   Z               Mass
    ------------   -----------------  -----------------  -----------------  -----------------
         CL          -0.218127921429     1.005022106993     0.376599099023    34.968852682000
         CL           2.027677078571    -0.795298293007    -0.014201300977    34.968852682000
         CL          -0.691523321429    -1.809948993007    -0.155725200977    34.968852682000
         C            0.383341578571    -0.634091893007     0.592384899023    12.000000000000
         H            0.404416078571    -0.838726893007     1.662697999023     1.007825032230
         O           -2.432474921429     3.608438506993    -0.837643100977    15.994914619570
         H           -3.108972021429     2.932398306993    -0.885037200977     1.007825032230
         H           -2.047212321429     3.711379306993    -1.708072800977     1.007825032230

  Charge       = 0
  Multiplicity = 1
  Basis Set: AUG-CC-PVQZ
    Blend: AUG-CC-PVQZ
  Basis Set: (AUG-CC-PVQZ AUX)
    Blend: AUG-CC-PVQZ-JKFIT

    Orbital Energies [Eh]
    ---------------------

    Doubly Occupied:

       1A   -104.863414     2A   -104.862607     3A   -104.860760
       4A    -20.563144     5A    -11.428685     6A    -10.589254
       7A    -10.588425     8A    -10.586424     9A     -8.056285
      10A     -8.055457    11A     -8.054335    12A     -8.054283
      13A     -8.053499    14A     -8.053447    15A     -8.053434
      16A     -8.051430    17A     -8.051377    18A     -1.350371
      19A     -1.242636    20A     -1.114550    21A     -1.112674
      22A     -0.870304    23A     -0.725234    24A     -0.680047
      25A     -0.626659    26A     -0.625522    27A     -0.577954
      28A     -0.511561    29A     -0.502675    30A     -0.501287
      31A     -0.467058    32A     -0.466071    33A     -0.461414
      34A     -0.448891

  @DF-RHF Final Energy: -1493.08227345358273

   => Energetics <=

    Nuclear Repulsion Energy =            335.0868850662960199
    One-Electron Energy =               -2730.1159847649387302
    Two-Electron Energy =                 901.9468262450600378
    Total Energy =                      -1493.0822734535827294

  Dipole Moment: [D]
     X:    -0.5170      Y:    -1.0178      Z:    -0.3654     Total:     1.1986

  Basis Set: (AUG-CC-PVQZ AUX)
    Blend: AUG-CC-PVQZ-RI
	 Reference Energy          =   -1493.0822734535827294 [Eh]
	 Singles Energy            =      -0.0000000000000000 [Eh]
	 Same-Spin Energy          =      -0.2649546867238913 [Eh]
	 Opposite-Spin Energy      =      -0.8371524988652890 [Eh]
	 Correlation Energy        =      -1.1021071855891802 [Eh]
	 Total Energy              =   -1494.1843806391718772 [Eh]

	 ================> DF-SCS-MP2 Energies <==================
	-----------------------------------------------------------
	 SCS Same-Spin Scale       =       0.3333333333333333 [-]
	 SCS Opposite-Spin Scale   =       1.2000000000000000 [-]
	 SCS Same-Spin Energy      =      -0.0883182289079638 [Eh]
	 SCS Opposite-Spin Energy  =      -1.0045829986383468 [Eh]
	 SCS Correlation Energy    =      -1.0929012275463106 [Eh]
	 SCS Total Energy          =   -1494.1751746811289649 [Eh]
	-----------------------------------------------------------

*** Psi4 exiting successfully. Buy a developer a beer!
