                               Psi4 1.3.2 release

  ==> Input File <==

--------------------------------------------------------------------------
molecule {
0 1
 Cl                 -0.5194035     1.1727966     0.4643278
 Cl                  1.8709157    -0.4028258    -0.0239565
 Cl                 -0.7416489    -1.6718972    -0.0757464
  C                  0.2425763    -0.4027368     0.6441278
  H                  0.3224440    -0.6103714     1.7111723
--
0 1
  O                 -1.5264195     3.5553164    -0.6068535
  H                 -2.3890032     3.3273922    -0.9541302
  H                 -0.8941547     3.5242120    -1.3252652
}
memory 15GB
set_num_threads(4)
psi4_io.set_default_path("/scratch/bdw2292/Psi4-CHCl3")
set maxiter 500
set freeze_core True
set PROPERTIES_ORIGIN ["COM"]
e_dim= energy('mp2/aug-cc-pV[TQ]Z',bsse_type='cp')

psi4.print_out('CP Energy = %10.6f' % (e_dim))
clean()
--------------------------------------------------------------------------

    Molecular point group: c1
  Charge       = 0
  Multiplicity = 1
  Basis Set: AUG-CC-PVTZ
    Blend: AUG-CC-PVTZ
  Basis Set: (AUG-CC-PVTZ AUX)
    Blend: AUG-CC-PVTZ-JKFIT
  @DF-RHF Final Energy:   -76.06044776873115
    Total Energy =                        -76.0604477687311658
  Basis Set: (AUG-CC-PVTZ AUX)
    Blend: AUG-CC-PVTZ-RI
	 Reference Energy          =     -76.0604477687311515 [Eh]
	 Singles Energy            =      -0.0000000000000000 [Eh]
	 Same-Spin Energy          =      -0.0650935068617429 [Eh]
	 Opposite-Spin Energy      =      -0.2029734773966372 [Eh]
	 Correlation Energy        =      -0.2680669842583800 [Eh]
	 Total Energy              =     -76.3285147529895340 [Eh]
	 SCS Total Energy          =     -76.3257137772276906 [Eh]
    Molecular point group: c1
  Basis Set: AUG-CC-PVQZ
    Blend: AUG-CC-PVQZ
  Basis Set: (AUG-CC-PVQZ AUX)
    Blend: AUG-CC-PVQZ-JKFIT
  @DF-RHF Final Energy:   -76.06583544817784
    Total Energy =                        -76.0658354481778360
  Basis Set: (AUG-CC-PVQZ AUX)
  @DF-RHF Final Energy:   -76.06052023956374
    Total Energy =                        -76.0605202395637434
  @DF-RHF Final Energy:   -76.06585958289821
    Total Energy =                        -76.0658595828982129
  @DF-RHF Final Energy: -1417.00231843219080
    Total Energy =                      -1417.0023184321908047
  @DF-RHF Final Energy: -1417.01578265386070
    Total Energy =                      -1417.0157826538606969
  @DF-RHF Final Energy: -1417.00225780502956
    Total Energy =                      -1417.0022578050293305
  @DF-RHF Final Energy: -1417.01577312663289
    Total Energy =                      -1417.0157731266331211
  Multiplicity = 1
  @DF-RHF Final Energy: -1493.06023964482824
    Total Energy =                      -1493.0602396448284708
	 Singles Energy            =      -0.0000000000000000 [Eh]
	 Same-Spin Energy          =      -0.2579933762221871 [Eh]
	 Opposite-Spin Energy      =      -0.7700492968574379 [Eh]
	 Correlation Energy        =      -1.0280426730796250 [Eh]
	 Total Energy              =   -1494.0882823179078969 [Eh]
	 SCS Total Energy          =   -1494.0702965931311610 [Eh]
    Molecular point group: c1

    Geometry (in Angstrom), charge = 0, multiplicity = 1:

       Center              X                  Y                   Z               Mass
    ------------   -----------------  -----------------  -----------------  -----------------
         CL          -0.496142901294     0.975740207184     0.389280438959    34.968852682000
         CL           1.894176298706    -0.599882192816    -0.099003861041    34.968852682000
         CL          -0.718388301294    -1.868953592816    -0.150793761041    34.968852682000
         C            0.265836898706    -0.599793192816     0.569080438959    12.000000000000
         H            0.345704598706    -0.807427792816     1.636124938959     1.007825032230
         O           -1.503158901294     3.358260007184    -0.681900861041    15.994914619570
         H           -2.365742601294     3.130335807184    -1.029177561041     1.007825032230
         H           -0.870894101294     3.327155607184    -1.400312561041     1.007825032230

  Charge       = 0
  Multiplicity = 1
  Basis Set: AUG-CC-PVQZ
    Blend: AUG-CC-PVQZ
  Basis Set: (AUG-CC-PVQZ AUX)
    Blend: AUG-CC-PVQZ-JKFIT

    Orbital Energies [Eh]
    ---------------------

    Doubly Occupied:

       1A   -104.858788     2A   -104.858786     3A   -104.854205
       4A    -20.566136     5A    -11.421293     6A    -10.584668
       7A    -10.584655     8A    -10.579798     9A     -8.051699
      10A     -8.051690    11A     -8.049762    12A     -8.049752
      13A     -8.049711    14A     -8.049702    15A     -8.046746
      16A     -8.044582    17A     -8.044535    18A     -1.356050
      19A     -1.237435    20A     -1.110369    21A     -1.107052
      22A     -0.865316    23A     -0.730210    24A     -0.675124
      25A     -0.624143    26A     -0.621806    27A     -0.582187
      28A     -0.521688    29A     -0.498314    30A     -0.491358
      31A     -0.462775    32A     -0.460816    33A     -0.454065
      34A     -0.444209

  @DF-RHF Final Energy: -1493.07909820936561

   => Energetics <=

    Nuclear Repulsion Energy =            347.2023721053384406
    One-Electron Energy =               -2754.5840934282941816
    Two-Electron Energy =                 914.3026231135902435
    Total Energy =                      -1493.0790982093656112

  Dipole Moment: [D]
     X:    -0.5220      Y:    -0.1734      Z:    -0.6358     Total:     0.8407

  Basis Set: (AUG-CC-PVQZ AUX)
    Blend: AUG-CC-PVQZ-RI
	 Reference Energy          =   -1493.0790982093656112 [Eh]
	 Singles Energy            =      -0.0000000000000000 [Eh]
	 Same-Spin Energy          =      -0.2662917499421115 [Eh]
	 Opposite-Spin Energy      =      -0.8385773293636558 [Eh]
	 Correlation Energy        =      -1.1048690793057674 [Eh]
	 Total Energy              =   -1494.1839672886712833 [Eh]

	 ================> DF-SCS-MP2 Energies <==================
	-----------------------------------------------------------
	 SCS Same-Spin Scale       =       0.3333333333333333 [-]
	 SCS Opposite-Spin Scale   =       1.2000000000000000 [-]
	 SCS Same-Spin Energy      =      -0.0887639166473705 [Eh]
	 SCS Opposite-Spin Energy  =      -1.0062927952363869 [Eh]
	 SCS Correlation Energy    =      -1.0950567118837575 [Eh]
	 SCS Total Energy          =   -1494.1741549212492828 [Eh]
	-----------------------------------------------------------

*** Psi4 exiting successfully. Buy a developer a beer!
