                               Psi4 1.3.2 release

  ==> Input File <==

--------------------------------------------------------------------------
molecule {
0 1
 Cl                 -0.3305712     1.3344966     0.3964185
 Cl                  1.9152338    -0.4658238     0.0056181
 Cl                 -0.8039666    -1.4804745    -0.1359058
  C                  0.2708983    -0.3046174     0.6122043
  H                  0.2919728    -0.5092524     1.6825174
--
0 1
  O                 -2.0193102     3.5874809    -0.5884353
  H                 -2.6958072     2.9114408    -0.6358294
  H                 -1.6340476     3.6904218    -1.4588650
}
memory 15GB
set_num_threads(4)
psi4_io.set_default_path("/scratch/bdw2292/Psi4-CHCl3")
set maxiter 500
set freeze_core True
set PROPERTIES_ORIGIN ["COM"]
e_dim= energy('mp2/aug-cc-pV[TQ]Z',bsse_type='cp')

psi4.print_out('CP Energy = %10.6f' % (e_dim))
clean()
--------------------------------------------------------------------------

    Molecular point group: c1
  Charge       = 0
  Multiplicity = 1
  Basis Set: AUG-CC-PVTZ
    Blend: AUG-CC-PVTZ
  Basis Set: (AUG-CC-PVTZ AUX)
    Blend: AUG-CC-PVTZ-JKFIT
  @DF-RHF Final Energy:   -76.06044360186304
    Total Energy =                        -76.0604436018630565
  Basis Set: (AUG-CC-PVTZ AUX)
    Blend: AUG-CC-PVTZ-RI
	 Reference Energy          =     -76.0604436018630423 [Eh]
	 Singles Energy            =      -0.0000000000000000 [Eh]
	 Same-Spin Energy          =      -0.0650941314456918 [Eh]
	 Opposite-Spin Energy      =      -0.2029755224348804 [Eh]
	 Correlation Energy        =      -0.2680696538805722 [Eh]
	 Total Energy              =     -76.3285132557436157 [Eh]
	 SCS Total Energy          =     -76.3257122726001285 [Eh]
    Molecular point group: c1
  Basis Set: AUG-CC-PVQZ
    Blend: AUG-CC-PVQZ
  Basis Set: (AUG-CC-PVQZ AUX)
    Blend: AUG-CC-PVQZ-JKFIT
  @DF-RHF Final Energy:   -76.06583106927981
    Total Energy =                        -76.0658310692797954
  Basis Set: (AUG-CC-PVQZ AUX)
  @DF-RHF Final Energy:   -76.06050047399795
    Total Energy =                        -76.0605004739979478
  @DF-RHF Final Energy:   -76.06585050158557
    Total Energy =                        -76.0658505015855724
  @DF-RHF Final Energy: -1417.00230589281659
    Total Energy =                      -1417.0023058928165938
  @DF-RHF Final Energy: -1417.01578311521780
    Total Energy =                      -1417.0157831152178005
  @DF-RHF Final Energy: -1417.00225842622172
    Total Energy =                      -1417.0022584262214878
  @DF-RHF Final Energy: -1417.01577392879290
    Total Energy =                      -1417.0157739287931236
  Multiplicity = 1
  @DF-RHF Final Energy: -1493.06185396951400
    Total Energy =                      -1493.0618539695137770
	 Singles Energy            =      -0.0000000000000000 [Eh]
	 Same-Spin Energy          =      -0.2575613500437401 [Eh]
	 Opposite-Spin Energy      =      -0.7695898966174153 [Eh]
	 Correlation Energy        =      -1.0271512466611554 [Eh]
	 Total Energy              =   -1494.0890052161751100 [Eh]
	 SCS Total Energy          =   -1494.0712156288027472 [Eh]
    Molecular point group: c1

    Geometry (in Angstrom), charge = 0, multiplicity = 1:

       Center              X                  Y                   Z               Mass
    ------------   -----------------  -----------------  -----------------  -----------------
         CL          -0.287772950830     1.051455671300     0.346204276851    34.968852682000
         CL           1.958032049170    -0.748864728700    -0.044596123149    34.968852682000
         CL          -0.761168350830    -1.763515428700    -0.186120023149    34.968852682000
         C            0.313696549170    -0.587658328700     0.561990076851    12.000000000000
         H            0.334771049170    -0.792293328700     1.632303176851     1.007825032230
         O           -1.976511950830     3.304439971300    -0.638649523149    15.994914619570
         H           -2.653008950830     2.628399871300    -0.686043623149     1.007825032230
         H           -1.591249350830     3.407380871300    -1.509079223149     1.007825032230

  Charge       = 0
  Multiplicity = 1
  Basis Set: AUG-CC-PVQZ
    Blend: AUG-CC-PVQZ
  Basis Set: (AUG-CC-PVQZ AUX)
    Blend: AUG-CC-PVQZ-JKFIT

    Orbital Energies [Eh]
    ---------------------

    Doubly Occupied:

       1A   -104.862397     2A   -104.861155     3A   -104.858594
       4A    -20.564367     5A    -11.425783     6A    -10.588261
       7A    -10.586994     8A    -10.584234     9A     -8.055293
      10A     -8.054027    11A     -8.053353    12A     -8.053301
      13A     -8.052076    14A     -8.052025    15A     -8.051205
      16A     -8.049125    17A     -8.049069    18A     -1.353171
      19A     -1.240988    20A     -1.113393    21A     -1.110912
      22A     -0.868731    23A     -0.727708    24A     -0.678425
      25A     -0.625575    26A     -0.624898    27A     -0.580447
      28A     -0.518539    29A     -0.501472    30A     -0.496100
      31A     -0.465872    32A     -0.464178    33A     -0.458948
      34A     -0.447268

  @DF-RHF Final Energy: -1493.08069972554722

   => Energetics <=

    Nuclear Repulsion Energy =            344.3870465183053398
    One-Electron Energy =               -2748.7797270881846998
    Two-Electron Energy =                 911.3119808443320835
    Total Energy =                      -1493.0806997255472197

  Dipole Moment: [D]
     X:    -0.5627      Y:    -0.8539      Z:    -0.3654     Total:     1.0859

  Basis Set: (AUG-CC-PVQZ AUX)
    Blend: AUG-CC-PVQZ-RI
	 Reference Energy          =   -1493.0806997255472197 [Eh]
	 Singles Energy            =      -0.0000000000000000 [Eh]
	 Same-Spin Energy          =      -0.2658422480375882 [Eh]
	 Opposite-Spin Energy      =      -0.8381079292913448 [Eh]
	 Correlation Energy        =      -1.1039501773289331 [Eh]
	 Total Energy              =   -1494.1846499028761173 [Eh]

	 ================> DF-SCS-MP2 Energies <==================
	-----------------------------------------------------------
	 SCS Same-Spin Scale       =       0.3333333333333333 [-]
	 SCS Opposite-Spin Scale   =       1.2000000000000000 [-]
	 SCS Same-Spin Energy      =      -0.0886140826791960 [Eh]
	 SCS Opposite-Spin Energy  =      -1.0057295151496137 [Eh]
	 SCS Correlation Energy    =      -1.0943435978288099 [Eh]
	 SCS Total Energy          =   -1494.1750433233760305 [Eh]
	-----------------------------------------------------------

*** Psi4 exiting successfully. Buy a developer a beer!
