                               Psi4 1.3.2 release

  ==> Input File <==

--------------------------------------------------------------------------
molecule {
0 1
 Cl                 -0.3305712     1.3344966     0.3964185
 Cl                  1.9152338    -0.4658238     0.0056181
 Cl                 -0.8039666    -1.4804745    -0.1359058
  C                  0.2708983    -0.3046174     0.6122043
  H                  0.2919728    -0.5092524     1.6825174
--
0 1
  O                 -2.8077222     4.1131290    -0.9325180
  H                 -3.4842193     3.4370889    -0.9799120
  H                 -2.4224596     4.2160698    -1.8029477
}
memory 15GB
set_num_threads(4)
psi4_io.set_default_path("/scratch/bdw2292/Psi4-CHCl3")
set maxiter 500
set freeze_core True
set PROPERTIES_ORIGIN ["COM"]
e_dim= energy('mp2/aug-cc-pV[TQ]Z',bsse_type='cp')

psi4.print_out('CP Energy = %10.6f' % (e_dim))
clean()
--------------------------------------------------------------------------

    Molecular point group: c1
  Charge       = 0
  Multiplicity = 1
  Basis Set: AUG-CC-PVTZ
    Blend: AUG-CC-PVTZ
  Basis Set: (AUG-CC-PVTZ AUX)
    Blend: AUG-CC-PVTZ-JKFIT
  @DF-RHF Final Energy:   -76.06044359948146
    Total Energy =                        -76.0604435994814594
  Basis Set: (AUG-CC-PVTZ AUX)
    Blend: AUG-CC-PVTZ-RI
	 Reference Energy          =     -76.0604435994814594 [Eh]
	 Singles Energy            =      -0.0000000000000000 [Eh]
	 Same-Spin Energy          =      -0.0650941319131817 [Eh]
	 Opposite-Spin Energy      =      -0.2029755239909617 [Eh]
	 Correlation Energy        =      -0.2680696559041434 [Eh]
	 Total Energy              =     -76.3285132553856016 [Eh]
	 SCS Total Energy          =     -76.3257122722416739 [Eh]
    Molecular point group: c1
  Basis Set: AUG-CC-PVQZ
    Blend: AUG-CC-PVQZ
  Basis Set: (AUG-CC-PVQZ AUX)
    Blend: AUG-CC-PVQZ-JKFIT
  @DF-RHF Final Energy:   -76.06583106676425
    Total Energy =                        -76.0658310667642468
  Basis Set: (AUG-CC-PVQZ AUX)
  @DF-RHF Final Energy:   -76.06045506762246
    Total Energy =                        -76.0604550676224562
  @DF-RHF Final Energy:   -76.06583724545777
    Total Energy =                        -76.0658372454577716
  @DF-RHF Final Energy: -1417.00227605601663
    Total Energy =                      -1417.0022760560168535
  @DF-RHF Final Energy: -1417.01577825862614
    Total Energy =                      -1417.0157782586261419
  @DF-RHF Final Energy: -1417.00225842649252
    Total Energy =                      -1417.0022584264925172
  @DF-RHF Final Energy: -1417.01577392801778
    Total Energy =                      -1417.0157739280177793
  Multiplicity = 1
  @DF-RHF Final Energy: -1493.06330850766267
    Total Energy =                      -1493.0633085076626685
	 Singles Energy            =      -0.0000000000000000 [Eh]
	 Same-Spin Energy          =      -0.2565193427300225 [Eh]
	 Opposite-Spin Energy      =      -0.7684059952520690 [Eh]
	 Correlation Energy        =      -1.0249253379820915 [Eh]
	 Total Energy              =   -1494.0882338456447087 [Eh]
	 SCS Total Energy          =   -1494.0709021495417801 [Eh]
    Molecular point group: c1

    Geometry (in Angstrom), charge = 0, multiplicity = 1:

       Center              X                  Y                   Z               Mass
    ------------   -----------------  -----------------  -----------------  -----------------
         CL          -0.183305407099     0.981805329982     0.391796522618    34.968852682000
         CL           2.062499592901    -0.818515070018     0.000996122618    34.968852682000
         CL          -0.656700807099    -1.833165770018    -0.140527777382    34.968852682000
         C            0.418164092901    -0.657308670018     0.607582322618    12.000000000000
         H            0.439238592901    -0.861943670018     1.677895422618     1.007825032230
         O           -2.660456407099     3.760437729982    -0.937139977382    15.994914619570
         H           -3.336953507099     3.084397629982    -0.984533977382     1.007825032230
         H           -2.275193807099     3.863378529982    -1.807569677382     1.007825032230

  Charge       = 0
  Multiplicity = 1
  Basis Set: AUG-CC-PVQZ
    Blend: AUG-CC-PVQZ
  Basis Set: (AUG-CC-PVQZ AUX)
    Blend: AUG-CC-PVQZ-JKFIT

    Orbital Energies [Eh]
    ---------------------

    Doubly Occupied:

       1A   -104.863627     2A   -104.862967     3A   -104.861394
       4A    -20.562788     5A    -11.429323     6A    -10.589459
       7A    -10.588780     8A    -10.587088     9A     -8.056491
      10A     -8.055812    11A     -8.054538    12A     -8.054486
      13A     -8.054106    14A     -8.053853    15A     -8.053801
      16A     -8.052113    17A     -8.052060    18A     -1.349853
      19A     -1.243065    20A     -1.114813    21A     -1.113248
      22A     -0.870759    23A     -0.724767    24A     -0.680496
      25A     -0.627010    26A     -0.626001    27A     -0.577425
      28A     -0.510041    29A     -0.503028    30A     -0.502423
      31A     -0.467377    32A     -0.466567    33A     -0.461932
      34A     -0.449325

  @DF-RHF Final Energy: -1493.08218871230633

   => Energetics <=

    Nuclear Repulsion Energy =            331.3038094866252550
    One-Electron Energy =               -2722.5303672613204071
    Two-Electron Energy =                 898.1443690623888187
    Total Energy =                      -1493.0821887123065608

  Dipole Moment: [D]
     X:    -0.5060      Y:    -1.0592      Z:    -0.3688     Total:     1.2304

  Basis Set: (AUG-CC-PVQZ AUX)
    Blend: AUG-CC-PVQZ-RI
	 Reference Energy          =   -1493.0821887123063334 [Eh]
	 Singles Energy            =      -0.0000000000000000 [Eh]
	 Same-Spin Energy          =      -0.2647717213657699 [Eh]
	 Opposite-Spin Energy      =      -0.8369515744514363 [Eh]
	 Correlation Energy        =      -1.1017232958172061 [Eh]
	 Total Energy              =   -1494.1839120081235706 [Eh]

	 ================> DF-SCS-MP2 Energies <==================
	-----------------------------------------------------------
	 SCS Same-Spin Scale       =       0.3333333333333333 [-]
	 SCS Opposite-Spin Scale   =       1.2000000000000000 [-]
	 SCS Same-Spin Energy      =      -0.0882572404552566 [Eh]
	 SCS Opposite-Spin Energy  =      -1.0043418893417235 [Eh]
	 SCS Correlation Energy    =      -1.0925991297969802 [Eh]
	 SCS Total Energy          =   -1494.1747878421033420 [Eh]
	-----------------------------------------------------------

*** Psi4 exiting successfully. Buy a developer a beer!
