                               Psi4 1.3.2 release

  ==> Input File <==

--------------------------------------------------------------------------
molecule {
0 1
 Cl                 -0.0607084     0.3731964    -0.0136444
 Cl                  2.2864943    -1.3072355     0.3117727
 Cl                 -0.3552486    -2.5098910     0.1828073
  C                  0.5792523    -1.1072755     0.6895374
  H                  0.4887905    -1.0243117     1.7725520
--
0 1
 Cl                 -3.1036429     7.3537575    -0.3539469
 Cl                 -0.7658430     5.6290357    -0.3223876
 Cl                 -3.4276277     4.4668002    -0.3666457
  C                 -2.4405713     5.8152417     0.1850844
  H                 -2.4570958     5.8120194     1.2749268
}
memory 15GB
set_num_threads(4)
psi4_io.set_default_path("/scratch/bdw2292/Psi4-CHCl3")
set maxiter 500
set freeze_core True
set PROPERTIES_ORIGIN ["COM"]
e_dim= energy('mp2/aug-cc-pV[TQ]Z',bsse_type='cp')

psi4.print_out('CP Energy = %10.6f' % (e_dim))
clean()
--------------------------------------------------------------------------

    Molecular point group: c1
  Charge       = 0
  Multiplicity = 1
  Basis Set: AUG-CC-PVTZ
    Blend: AUG-CC-PVTZ
  Basis Set: (AUG-CC-PVTZ AUX)
    Blend: AUG-CC-PVTZ-JKFIT
  @DF-RHF Final Energy: -1417.00225658941690
    Total Energy =                      -1417.0022565894166746
  Basis Set: (AUG-CC-PVTZ AUX)
    Blend: AUG-CC-PVTZ-RI
	 Reference Energy          =   -1417.0022565894169020 [Eh]
	 Singles Energy            =      -0.0000000000000000 [Eh]
	 Same-Spin Energy          =      -0.1911304860108012 [Eh]
	 Opposite-Spin Energy      =      -0.5650644432288985 [Eh]
	 Correlation Energy        =      -0.7561949292396997 [Eh]
	 Total Energy              =   -1417.7584515186565568 [Eh]
	 SCS Total Energy          =   -1417.7440440832951936 [Eh]
    Molecular point group: c1
  Basis Set: AUG-CC-PVQZ
    Blend: AUG-CC-PVQZ
  Basis Set: (AUG-CC-PVQZ AUX)
    Blend: AUG-CC-PVQZ-JKFIT
  @DF-RHF Final Energy: -1417.01577145003512
    Total Energy =                      -1417.0157714500348902
  Basis Set: (AUG-CC-PVQZ AUX)
  @DF-RHF Final Energy: -1417.00226505011301
    Total Energy =                      -1417.0022650501130101
  @DF-RHF Final Energy: -1417.01577455325378
    Total Energy =                      -1417.0157745532537774
  @DF-RHF Final Energy: -1417.00227118793759
    Total Energy =                      -1417.0022711879375947
  @DF-RHF Final Energy: -1417.01577455056440
    Total Energy =                      -1417.0157745505644016
  @DF-RHF Final Energy: -1417.00225657745659
    Total Energy =                      -1417.0022565774565919
  @DF-RHF Final Energy: -1417.01577188227589
    Total Energy =                      -1417.0157718822756578
  Multiplicity = 1
  @DF-RHF Final Energy: -2834.00452298329174
    Total Energy =                      -2834.0045229832917357
	 Singles Energy            =      -0.0000000000000000 [Eh]
	 Same-Spin Energy          =      -0.3825055545608903 [Eh]
	 Opposite-Spin Energy      =      -1.1304390613784721 [Eh]
	 Correlation Energy        =      -1.5129446159393622 [Eh]
	 Total Energy              =   -2835.5174675992311677 [Eh]
	 SCS Total Energy          =   -2835.4885517084662752 [Eh]
    Molecular point group: c1

    Geometry (in Angstrom), charge = 0, multiplicity = 1:

       Center              X                  Y                   Z               Mass
    ------------   -----------------  -----------------  -----------------  -----------------
         CL           0.847071791721    -1.963595466828     0.012167836130    34.968852682000
         CL           3.194274491721    -3.644027366828     0.337584936130    34.968852682000
         CL           0.552531591721    -4.846682866828     0.208619536130    34.968852682000
         C            1.487032491721    -3.444067366828     0.715349636130    12.000000000000
         H            1.396570691721    -3.361103566828     1.798364236130     1.007825032230
         CL          -2.195862708279     5.016965633172    -0.328134663870    34.968852682000
         CL           0.141937191721     3.292243833172    -0.296575363870    34.968852682000
         CL          -2.519847508279     2.130008333172    -0.340833463870    34.968852682000
         C           -1.532791108279     3.478449833172     0.210896636130    12.000000000000
         H           -1.549315608279     3.475227533172     1.300739036130     1.007825032230

  Charge       = 0
  Multiplicity = 1
  Basis Set: AUG-CC-PVQZ
    Blend: AUG-CC-PVQZ
  Basis Set: (AUG-CC-PVQZ AUX)
    Blend: AUG-CC-PVQZ-JKFIT

    Orbital Energies [Eh]
    ---------------------

    Doubly Occupied:

       1A   -104.864741     2A   -104.864725     3A   -104.864708
       4A   -104.864095     5A   -104.864084     6A   -104.863767
       7A    -11.431835     8A    -11.431072     9A    -10.590540
      10A    -10.590523    11A    -10.590501    12A    -10.589897
      13A    -10.589883    14A    -10.589549    15A     -8.057569
      16A     -8.057553    17A     -8.057534    18A     -8.056927
      19A     -8.056915    20A     -8.056579    21A     -8.055604
      22A     -8.055588    23A     -8.055569    24A     -8.055551
      25A     -8.055535    26A     -8.055516    27A     -8.054963
      28A     -8.054952    29A     -8.054910    30A     -8.054899
      31A     -8.054608    32A     -8.054555    33A     -1.245138
      34A     -1.244417    35A     -1.116160    36A     -1.116154
      37A     -1.115536    38A     -1.115297    39A     -0.872977
      40A     -0.872245    41A     -0.682662    42A     -0.681943
      43A     -0.628760    44A     -0.628725    45A     -0.628080
      46A     -0.627894    47A     -0.505030    48A     -0.504978
      49A     -0.504251    50A     -0.504232    51A     -0.469295
      52A     -0.469064    53A     -0.468410    54A     -0.468074
      55A     -0.464047    56A     -0.463292    57A     -0.451541
      58A     -0.450675

  @DF-RHF Final Energy: -2834.03153607690501

   => Energetics <=

    Nuclear Repulsion Energy =            767.5020624333429851
    One-Electron Energy =               -5445.2789523483015728
    Two-Electron Energy =                1843.7453538380536884
    Total Energy =                      -2834.0315360769050130

  Dipole Moment: [D]
     X:    -0.1285      Y:     0.1172      Z:     2.3317     Total:     2.3382

  Basis Set: (AUG-CC-PVQZ AUX)
    Blend: AUG-CC-PVQZ-RI
	 Reference Energy          =   -2834.0315360769050130 [Eh]
	 Singles Energy            =      -0.0000000000000000 [Eh]
	 Same-Spin Energy          =      -0.3948706273302309 [Eh]
	 Opposite-Spin Energy      =      -1.2365082451904790 [Eh]
	 Correlation Energy        =      -1.6313788725207099 [Eh]
	 Total Energy              =   -2835.6629149494256126 [Eh]

	 ================> DF-SCS-MP2 Energies <==================
	-----------------------------------------------------------
	 SCS Same-Spin Scale       =       0.3333333333333333 [-]
	 SCS Opposite-Spin Scale   =       1.2000000000000000 [-]
	 SCS Same-Spin Energy      =      -0.1316235424434103 [Eh]
	 SCS Opposite-Spin Energy  =      -1.4838098942285747 [Eh]
	 SCS Correlation Energy    =      -1.6154334366719849 [Eh]
	 SCS Total Energy          =   -2835.6469695135770053 [Eh]
	-----------------------------------------------------------

*** Psi4 exiting successfully. Buy a developer a beer!
