                               Psi4 1.5 release

  ==> Input File <==

--------------------------------------------------------------------------
molecule {
0 1
 C   -3.344400   -0.170000    0.775700
 N   -2.067800   -0.696200    0.963700
 C   -0.798700   -0.461700    0.408600
 C    0.175900   -1.455600    0.573900
 H   -2.037400   -1.387000    1.722200
 C   -0.435200    0.645900   -0.349200
 C   -4.406000   -0.531700    1.538600
 N   -5.462300   -1.602900    3.289300
 C   -5.844500   -0.191400    1.515900
 C   -4.218400   -1.480600    2.703200
 C   -6.417300   -0.862600    2.604600
 C   -3.574400    0.759600   -0.347000
 C   -3.699700    2.139400   -0.116200
 C   -3.691500    0.268800   -1.654900
 C   -3.945100    3.010800   -1.178700
 C   -3.936300    1.143700   -2.714600
 C   -4.065300    2.511800   -2.475400
 C    1.461500   -1.339200    0.021200
 C    0.850600    0.767300   -0.906100
 C    1.830800   -0.220300   -0.728700
 H   -0.061300   -2.359000    1.133800
 H   -1.120700    1.468400   -0.508800
 H   -5.631600   -2.186800    4.094400
 O   -3.187000   -2.028200    3.051100
 H   -3.609700    2.536100    0.892500
 H   -3.591500   -0.796700   -1.848800
 H   -4.052600    4.076700   -0.994600
 H   -4.033300    0.757000   -3.725800
 H   -4.267600    3.189900   -3.301000
 H    2.134700   -2.177400    0.171200
 H    1.053800    1.682700   -1.453900
 H   -6.328300    0.416600    0.836700
 H   -7.415200   -0.813400    2.863000
 H    2.776100   -0.125000   -1.131500
}
set {
  geom_maxiter 400
  g_convergence GAU
  dynamic_level 1
}
memory 8.166666666666666GB
set_num_threads(2)
psi4_io.set_default_path("/scratch/bdw2292/Psi4-1_16_Index_0-farH_in17")
for _ in range(1):
  try:
    set opt_coordinates both
    optimize('mp2/6-31G*')
    break
  except:
    break
  else:
    try:
      set opt_coordinates cartesian
      optimize('mp2/6-31G*')
      break
    except:
      pass
clean()
--------------------------------------------------------------------------

    Molecular point group: c1
  Charge       = 0
  Multiplicity = 1
  Basis Set: 6-31G*
    Blend: 6-31G*
  Basis Set: (6-31G* AUX)
    Blend: CC-PVDZ-JKFIT
  @DF-RHF Final Energy:  -835.64892622076150
    Total Energy =                       -835.6489262207614956
  Basis Set: (6-31G* AUX)
    Blend: CC-PVDZ-RI
    Molecular point group: c1
  Basis Set: 6-31G*
    Blend: 6-31G*
  Basis Set: (6-31G* AUX)
    Blend: CC-PVDZ-JKFIT
  Basis Set: (6-31G* AUX)
    Blend: CC-PVDZ-JKFIT
	 Reference Energy          =    -835.6489262207614956 [Eh]
	 Singles Energy            =      -0.0000000000000000 [Eh]
	 Same-Spin Energy          =      -0.7483340252363180 [Eh]
	 Opposite-Spin Energy      =      -2.0032836313881210 [Eh]
	 Correlation Energy        =      -2.7516176566244388 [Eh]
	 Total Energy              =    -838.4005438773859851 [Eh]
	 SCS Total Energy          =    -838.3023112535059909 [Eh]
  @DF-RHF Final Energy:  -835.66284938511126
    Total Energy =                       -835.6628493851112580
  @DF-RHF Final Energy:  -835.66286598984584
    Total Energy =                       -835.6628659898458409
  @DF-RHF Final Energy:  -835.66160706148389
    Total Energy =                       -835.6616070614838918
  @DF-RHF Final Energy:  -835.66131242908637
    Total Energy =                       -835.6613124290863652
  @DF-RHF Final Energy:  -835.66281309678743
    Total Energy =                       -835.6628130967874313
  @DF-RHF Final Energy:  -835.66349622941323
    Total Energy =                       -835.6634962294131128
  @DF-RHF Final Energy:  -835.66364073832688
    Total Energy =                       -835.6636407383268761
  @DF-RHF Final Energy:  -835.66368477090975
    Total Energy =                       -835.6636847709096401
  @DF-RHF Final Energy:  -835.66393937706243
    Total Energy =                       -835.6639393770624338
  @DF-RHF Final Energy:  -835.66393722342639
    Total Energy =                       -835.6639372234265011
  @DF-RHF Final Energy:  -835.66388760970585
    Total Energy =                       -835.6638876097058528
  @DF-RHF Final Energy:  -835.66394933269987
    Total Energy =                       -835.6639493326997581
  Charge       = 0
  Multiplicity = 1
  Basis Set: 6-31G*
    Blend: 6-31G*
  Basis Set: (6-31G* AUX)
    Blend: CC-PVDZ-JKFIT

    Orbital Energies [Eh]
    ---------------------

    Doubly Occupied:

       1A    -20.510358     2A    -15.592210     3A    -15.591029
       4A    -11.337251     5A    -11.318118     6A    -11.282199
       7A    -11.262984     8A    -11.258346     9A    -11.251964
      10A    -11.251007    11A    -11.250755    12A    -11.248512
      13A    -11.247335    14A    -11.238235    15A    -11.237970
      16A    -11.232981    17A    -11.232816    18A    -11.230961
      19A    -11.220626    20A    -11.215626    21A     -1.354092
      22A     -1.274379    23A     -1.254010    24A     -1.166212
      25A     -1.142125    26A     -1.078722    27A     -1.034480
      28A     -1.025283    29A     -1.013633    30A     -1.007870
      31A     -0.960898    32A     -0.897348    33A     -0.842450
      34A     -0.838752    35A     -0.830476    36A     -0.803081
      37A     -0.784514    38A     -0.761264    39A     -0.720730
      40A     -0.700050    41A     -0.688108    42A     -0.665200
      43A     -0.663436    44A     -0.640496    45A     -0.633129
      46A     -0.613932    47A     -0.605936    48A     -0.598150
      49A     -0.588874    50A     -0.586528    51A     -0.584846
      52A     -0.582454    53A     -0.573240    54A     -0.548897
      55A     -0.530617    56A     -0.518622    57A     -0.511081
      58A     -0.508413    59A     -0.502331    60A     -0.493629
      61A     -0.471627    62A     -0.454971    63A     -0.403945
      64A     -0.381387    65A     -0.348737    66A     -0.346274
      67A     -0.331509    68A     -0.308950    69A     -0.254877

  @DF-RHF Final Energy:  -835.66396105993647

   => Energetics <=

    Nuclear Repulsion Energy =           1429.6294596363775327
    One-Electron Energy =               -3975.7031418876390489
    Two-Electron Energy =                1710.4097211913251613
    Total Energy =                       -835.6639610599365824

  Dipole Moment: [D]
     X:    -1.4233      Y:     2.5693      Z:    -2.3304     Total:     3.7494

  Basis Set: (6-31G* AUX)
    Blend: CC-PVDZ-RI
    Molecular point group: c1
  Basis Set: 6-31G*
    Blend: 6-31G*
  Basis Set: (6-31G* AUX)
    Blend: CC-PVDZ-JKFIT
  Basis Set: (6-31G* AUX)
    Blend: CC-PVDZ-JKFIT
	 Reference Energy          =    -835.6639610599364687 [Eh]
	 Singles Energy            =      -0.0000000000000000 [Eh]
	 Same-Spin Energy          =      -0.7516478893863883 [Eh]
	 Opposite-Spin Energy      =      -2.0056339704748982 [Eh]
	 Correlation Energy        =      -2.7572818598612865 [Eh]
	 Total Energy              =    -838.4212429197978054 [Eh]

	 ================> DF-SCS-MP2 Energies <==================
	-----------------------------------------------------------
	 SCS Same-Spin Scale       =       0.3333333333333333 [-]
	 SCS Opposite-Spin Scale   =       1.2000000000000000 [-]
	 SCS Same-Spin Energy      =      -0.2505492964621294 [Eh]
	 SCS Opposite-Spin Energy  =      -2.4067607645698779 [Eh]
	 SCS Correlation Energy    =      -2.6573100610320073 [Eh]
	 SCS Total Energy          =    -838.3212711209685040 [Eh]
	-----------------------------------------------------------

  -Total Gradient:
     Atom            X                  Y                   Z
    ------   -----------------  -----------------  -----------------
       1       -0.000025050090    -0.000025590100    -0.000007525603
       2       -0.000023690774     0.000011449256     0.000020173408
       3        0.000022458644     0.000038138707    -0.000016939419
       4        0.000006203873    -0.000019689564    -0.000003136131
       5        0.000007422458     0.000001414437    -0.000002065676
       6       -0.000002722821    -0.000023256807     0.000003374002
       7        0.000021326431    -0.000010391280    -0.000016905501
       8        0.000013551507    -0.000027574988    -0.000053527520
       9       -0.000011229938     0.000001520148     0.000033930636
      10       -0.000066218176     0.000029300088     0.000014137014
      11        0.000012382557     0.000014405107     0.000005209566
      12       -0.000001894430     0.000030661226     0.000010559303
      13        0.000010260609    -0.000011065068    -0.000017499555
      14        0.000005122762    -0.000004930358     0.000008504414
      15       -0.000001487260    -0.000001276591    -0.000013248336
      16        0.000004979443    -0.000005243050     0.000005954965
      17       -0.000000772597     0.000003128311     0.000013926743
      18       -0.000006909984     0.000027019531     0.000001811889
      19       -0.000003934041     0.000007395897     0.000003429264
      20        0.000008850532    -0.000019215546    -0.000004583098
      21        0.000004781299     0.000003291500    -0.000002651842
      22        0.000001924493     0.000005003782    -0.000001664734
      23        0.000011745395     0.000021461248     0.000014224420
      24        0.000041642364    -0.000027138952    -0.000000217054
      25       -0.000002572677     0.000001878233    -0.000001329401
      26       -0.000000581550     0.000002460843     0.000004470579
      27        0.000002017868    -0.000002350358    -0.000000351290
      28       -0.000003520681     0.000000758002     0.000007511295
      29       -0.000001020417    -0.000000954357     0.000001041395
      30       -0.000000295992    -0.000005218814    -0.000000115999
      31       -0.000009963690    -0.000004205901     0.000003040718
      32        0.000003093826     0.000000177388    -0.000012502635
      33       -0.000008827851    -0.000004116986    -0.000001706813
      34       -0.000007071079    -0.000007244987     0.000004670980

  **** Optimization is complete! (in 14 steps) ****
    Final optimized geometry and variables:
    Molecular point group: c1

    Geometry (in Angstrom), charge = 0, multiplicity = 1:

    C           -0.563712849828    -0.226492940823     0.380391040200
    N            0.612777848601    -0.906280244297     0.434955264092
    C            1.838422773126    -0.557763370741    -0.164013047210
    C            2.705304315703    -1.598157736206    -0.519815150991
    H            0.618485927171    -1.649036949364     1.150911903830
    C            2.233817966371     0.772721561398    -0.355928301122
    C           -1.572727077891    -0.548477361001     1.267010309433
    N           -2.590425887101    -1.574249772932     2.998233269102
    C           -2.933765060844    -0.074854075383     1.351975643454
    C           -1.384553005968    -1.543999105186     2.326722405601
    C           -3.514753814059    -0.712527750839     2.404574366053
    C           -0.774222385430     0.765373686117    -0.690681123152
    C           -1.254174670507     2.045778810611    -0.386525135040
    C           -0.509875437222     0.419713866858    -2.023234591879
    C           -1.462914621891     2.972156972317    -1.407606789620
    C           -0.726948155727     1.347689886183    -3.037865890116
    C           -1.200705567233     2.625931387797    -2.733586576907
    C            3.947503641537    -1.312676616611    -1.080402748329
    C            3.469089765274     1.045658561372    -0.938556651698
    C            4.331731336313     0.010210839099    -1.301193122969
    H            2.390083310976    -2.627420943336    -0.363085727852
    H            1.585397328148     1.583799735206    -0.041479991065
    H           -2.767487991396    -2.206593535014     3.767588468517
    O           -0.382668090957    -2.243853127674     2.589972236012
    H           -1.442575962317     2.312250217225     0.650678663512
    H           -0.142884425176    -0.577252811762    -2.254796250865
    H           -1.827315996583     3.967740890843    -1.166630884098
    H           -0.527087759433     1.073683969345    -4.070733779827
    H           -1.364260363602     3.349425227969    -3.528175536900
    H            4.612899062605    -2.128431983304    -1.351304908323
    H            3.768269159493     2.080172394605    -1.087594430332
    H           -3.415382945437     0.639437596205     0.698914839281
    H           -4.519533553330    -0.631402330319     2.796879594285
    H            5.297352472089     0.233066463053    -1.746706453842

*** Psi4 exiting successfully. Buy a developer a beer!
