                               Psi4 1.5 release

  ==> Input File <==

--------------------------------------------------------------------------
molecule {
0 1
C -0.563712849828 -0.226492940823 0.380391040200
N 0.612777848601 -0.906280244297 0.434955264092
C 1.838422773126 -0.557763370741 -0.164013047210
C 2.705304315703 -1.598157736206 -0.519815150991
H 0.618485927171 -1.649036949364 1.150911903830
C 2.233817966371 0.772721561398 -0.355928301122
C -1.572727077891 -0.548477361001 1.267010309433
N -2.590425887101 -1.574249772932 2.998233269102
C -2.933765060844 -0.074854075383 1.351975643454
C -1.384553005968 -1.543999105186 2.326722405601
C -3.514753814059 -0.712527750839 2.404574366053
C -0.774222385430 0.765373686117 -0.690681123152
C -1.254174670507 2.045778810611 -0.386525135040
C -0.509875437222 0.419713866858 -2.023234591879
C -1.462914621891 2.972156972317 -1.407606789620
C -0.726948155727 1.347689886183 -3.037865890116
C -1.200705567233 2.625931387797 -2.733586576907
C 3.947503641537 -1.312676616611 -1.080402748329
C 3.469089765274 1.045658561372 -0.938556651698
C 4.331731336313 0.010210839099 -1.301193122969
H 2.390083310976 -2.627420943336 -0.363085727852
H 1.585397328148 1.583799735206 -0.041479991065
H -2.767487991396 -2.206593535014 3.767588468517
O -0.382668090957 -2.243853127674 2.589972236012
H -1.442575962317 2.312250217225 0.650678663512
H -0.142884425176 -0.577252811762 -2.254796250865
H -1.827315996583 3.967740890843 -1.166630884098
H -0.527087759433 1.073683969345 -4.070733779827
H -1.364260363602 3.349425227969 -3.528175536900
H 4.612899062605 -2.128431983304 -1.351304908323
H 3.768269159493 2.080172394605 -1.087594430332
H -3.415382945437 0.639437596205 0.698914839281
H -4.519533553330 -0.631402330319 2.796879594285
H 5.297352472089 0.233066463053 -1.746706453842
}
memory 8.166666666666666GB
set_num_threads(2)
psi4_io.set_default_path("/scratch/bdw2292/Psi4-1_16_Index_0-farH_in17")
set maxiter 500
set freeze_core True
set PROPERTIES_ORIGIN ["COM"]
set cubeprop_tasks ['esp']
set basis aug-cc-pVTZ
E, wfn = properties('mp2',properties=['dipole'],return_wfn=True)
cubeprop(wfn)
fchk(wfn, "1_16_Index_0-esp.fchk")
oeprop(wfn,"GRID_ESP","WIBERG_LOWDIN_INDICES","MULLIKEN_CHARGES")
clean()
--------------------------------------------------------------------------

    Molecular point group: c1
  Charge       = 0
  Multiplicity = 1
  Basis Set: AUG-CC-PVTZ
    Blend: AUG-CC-PVTZ
  Basis Set: (AUG-CC-PVTZ AUX)
    Blend: AUG-CC-PVTZ-JKFIT

    Orbital Energies [Eh]
    ---------------------

    Doubly Occupied:

       1A    -20.509890     2A    -15.592168     3A    -15.591910
       4A    -11.340448     5A    -11.322121     6A    -11.285952
       7A    -11.266368     8A    -11.261291     9A    -11.253985
      10A    -11.253377    11A    -11.252983    12A    -11.250713
      13A    -11.249660    14A    -11.241264    15A    -11.241043
      16A    -11.235769    17A    -11.235679    18A    -11.233428
      19A    -11.224987    20A    -11.219821    21A     -1.361540
      22A     -1.279993    23A     -1.260846    24A     -1.171710
      25A     -1.148106    26A     -1.084837    27A     -1.040178
      28A     -1.030355    29A     -1.019312    30A     -1.013541
      31A     -0.966875    32A     -0.903076    33A     -0.847922
      34A     -0.844300    35A     -0.836222    36A     -0.808894
      37A     -0.790520    38A     -0.766805    39A     -0.726684
      40A     -0.705307    41A     -0.694894    42A     -0.670372
      43A     -0.668980    44A     -0.646839    45A     -0.638915
      46A     -0.620665    47A     -0.611271    48A     -0.603173
      49A     -0.596549    50A     -0.593903    51A     -0.590586
      52A     -0.588305    53A     -0.580609    54A     -0.556091
      55A     -0.538166    56A     -0.525359    57A     -0.516624
      58A     -0.513925    59A     -0.507800    60A     -0.499442
      61A     -0.478734    62A     -0.464660    63A     -0.414562
      64A     -0.389215    65A     -0.355807    66A     -0.352988
      67A     -0.338535    68A     -0.316407    69A     -0.264089

  @DF-RHF Final Energy:  -835.94917798671281

   => Energetics <=

    Nuclear Repulsion Energy =           1429.6294596363816254
    One-Electron Energy =               -3975.5425837836241953
    Two-Electron Energy =                1709.9639461605295310
    Total Energy =                       -835.9491779867128116
  Basis Set: (AUG-CC-PVTZ AUX)
    Blend: AUG-CC-PVTZ-RI
    Molecular point group: c1

    Geometry (in Angstrom), charge = 0, multiplicity = 1:

       Center              X                  Y                   Z               Mass
    ------------   -----------------  -----------------  -----------------  -----------------
         C           -0.563712849828    -0.226492940823     0.380391040200    12.000000000000
         N            0.612777848601    -0.906280244297     0.434955264092    14.003074004430
         C            1.838422773126    -0.557763370741    -0.164013047210    12.000000000000
         C            2.705304315703    -1.598157736206    -0.519815150991    12.000000000000
         H            0.618485927171    -1.649036949364     1.150911903830     1.007825032230
         C            2.233817966371     0.772721561398    -0.355928301122    12.000000000000
         C           -1.572727077891    -0.548477361001     1.267010309433    12.000000000000
         N           -2.590425887101    -1.574249772932     2.998233269102    14.003074004430
         C           -2.933765060844    -0.074854075383     1.351975643454    12.000000000000
         C           -1.384553005968    -1.543999105186     2.326722405601    12.000000000000
         C           -3.514753814059    -0.712527750839     2.404574366053    12.000000000000
         C           -0.774222385430     0.765373686117    -0.690681123152    12.000000000000
         C           -1.254174670507     2.045778810611    -0.386525135040    12.000000000000
         C           -0.509875437222     0.419713866858    -2.023234591879    12.000000000000
         C           -1.462914621891     2.972156972317    -1.407606789620    12.000000000000
         C           -0.726948155727     1.347689886183    -3.037865890116    12.000000000000
         C           -1.200705567233     2.625931387797    -2.733586576907    12.000000000000
         C            3.947503641537    -1.312676616611    -1.080402748329    12.000000000000
         C            3.469089765274     1.045658561372    -0.938556651698    12.000000000000
         C            4.331731336313     0.010210839099    -1.301193122969    12.000000000000
         H            2.390083310976    -2.627420943336    -0.363085727852     1.007825032230
         H            1.585397328148     1.583799735206    -0.041479991065     1.007825032230
         H           -2.767487991396    -2.206593535014     3.767588468517     1.007825032230
         O           -0.382668090957    -2.243853127674     2.589972236012    15.994914619570
         H           -1.442575962317     2.312250217225     0.650678663512     1.007825032230
         H           -0.142884425176    -0.577252811762    -2.254796250865     1.007825032230
         H           -1.827315996583     3.967740890843    -1.166630884098     1.007825032230
         H           -0.527087759433     1.073683969345    -4.070733779827     1.007825032230
         H           -1.364260363602     3.349425227969    -3.528175536900     1.007825032230
         H            4.612899062605    -2.128431983304    -1.351304908323     1.007825032230
         H            3.768269159493     2.080172394605    -1.087594430332     1.007825032230
         H           -3.415382945437     0.639437596205     0.698914839281     1.007825032230
         H           -4.519533553330    -0.631402330319     2.796879594285     1.007825032230
         H            5.297352472089     0.233066463053    -1.746706453842     1.007825032230

  Basis Set: AUG-CC-PVTZ
    Blend: AUG-CC-PVTZ
  Basis Set: (AUG-CC-PVTZ AUX)
    Blend: AUG-CC-PVTZ-JKFIT
	 Reference Energy          =    -835.9491779867128116 [Eh]
	 Singles Energy            =      -0.0000000000000000 [Eh]
	 Same-Spin Energy          =      -0.8770733594602697 [Eh]
	 Opposite-Spin Energy      =      -2.4955465369026801 [Eh]
	 Correlation Energy        =      -3.3726198963629499 [Eh]
	 Total Energy              =    -839.3217978830757602 [Eh]

	 ================> DF-SCS-MP2 Energies <==================
	-----------------------------------------------------------
	 SCS Same-Spin Scale       =       0.3333333333333333 [-]
	 SCS Opposite-Spin Scale   =       1.2000000000000000 [-]
	 SCS Same-Spin Energy      =      -0.2923577864867565 [Eh]
	 SCS Opposite-Spin Energy  =      -2.9946558442832161 [Eh]
	 SCS Correlation Energy    =      -3.2870136307699727 [Eh]
	 SCS Total Energy          =    -839.2361916174827456 [Eh]
	-----------------------------------------------------------

  Dipole Moment: [D]
     X:    -1.0573      Y:     1.9314      Z:    -1.7568     Total:     2.8169

  Basis Set: AUG-CC-PVTZ
    Blend: AUG-CC-PVTZ

  Mulliken Charges: (a.u.)
   Center  Symbol    Alpha    Beta     Spin     Total
       1     C     2.88923  2.88923  0.00000  0.22154
       2     N     3.87254  3.87254  0.00000 -0.74508
       3     C     2.44993  2.44993  0.00000  1.10014
       4     C     3.42050  3.42050  0.00000 -0.84100
       5     H     0.43941  0.43941  0.00000  0.12119
       6     C     3.20060  3.20060  0.00000 -0.40120
       7     C     1.95532  1.95532  0.00000  2.08936
       8     N     3.49097  3.49097  0.00000  0.01805
       9     C     3.19180  3.19180  0.00000 -0.38360
      10     C     3.15719  3.15719  0.00000 -0.31438
      11     C     3.53843  3.53843  0.00000 -1.07685
      12     C     2.32611  2.32611  0.00000  1.34778
      13     C     3.47805  3.47805  0.00000 -0.95610
      14     C     3.52969  3.52969  0.00000 -1.05938
      15     C     3.38200  3.38200  0.00000 -0.76400
      16     C     3.33488  3.33488  0.00000 -0.66977
      17     C     3.00996  3.00996  0.00000 -0.01993
      18     C     3.29444  3.29444  0.00000 -0.58888
      19     C     3.40569  3.40569  0.00000 -0.81139
      20     C     3.10877  3.10877  0.00000 -0.21753
      21     H     0.31255  0.31255  0.00000  0.37490
      22     H     0.27214  0.27214  0.00000  0.45572
      23     H     0.44755  0.44755  0.00000  0.10490
      24     O     4.42696  4.42696  0.00000 -0.85393
      25     H     0.49230  0.49230  0.00000  0.01541
      26     H     0.47559  0.47559  0.00000  0.04882
      27     H     0.33052  0.33052  0.00000  0.33896
      28     H     0.28362  0.28362  0.00000  0.43275
      29     H     0.19723  0.19723  0.00000  0.60555
      30     H     0.31281  0.31281  0.00000  0.37438
      31     H     0.32469  0.32469  0.00000  0.35063
      32     H     0.26024  0.26024  0.00000  0.47952
      33     H     0.16346  0.16346  0.00000  0.67309
      34     H     0.22483  0.22483  0.00000  0.55034

   Total alpha = 69.00000, Total beta = 69.00000, Total charge =  0.00000

*** Psi4 exiting successfully. Buy a developer a beer!
