                               Psi4 1.3.2 release

  ==> Input File <==

--------------------------------------------------------------------------
molecule {
0 1
H         -5.54410       -2.13730        0.30810
C         -5.39960       -1.30330       -0.41360
N         -6.53810       -0.48150       -0.39510
C         -6.95280        0.08910        0.82430
C         -7.06200        0.02090       -1.60130
C         -4.15550       -0.51950       -0.13450
H         -5.24070       -1.74240       -1.43810
C         -8.43350        0.34930        0.92000
H         -6.37020        1.01670        1.06340
H         -6.70880       -0.63220        1.65040
H         -7.17230       -0.79300       -2.34110
H         -6.38110        0.82340       -2.01090
O         -4.29600        0.70990        0.04690
H         -8.57130        1.39150        1.26690
H         -8.93000       -0.30450        1.67690
H         -8.02640        0.44240       -1.40830
H         -3.22830       -0.97080       -0.09380
H         -8.86250        0.15940       -0.04170
}
memory 100GB
set_num_threads(12)
psi4_io.set_default_path("/scratch/bdw2292/Psi4-farH_in17")
set maxiter 500
set freeze_core True
set PROPERTIES_ORIGIN ["COM"]
set cubeprop_tasks ['esp']
E, wfn = properties('hf/MINIX',properties=['dipole'],return_wfn=True)
cubeprop(wfn)
fchk(wfn, "farH_in17-esp_frag.fchk")
oeprop(wfn,"WIBERG_LOWDIN_INDICES","MULLIKEN_CHARGES")
clean()
--------------------------------------------------------------------------

    Molecular point group: c1

    Geometry (in Angstrom), charge = 0, multiplicity = 1:

       Center              X                  Y                   Z               Mass
    ------------   -----------------  -----------------  -----------------  -----------------
         H            0.588729288073    -1.993677123437     0.417143491316     1.007825032230
         C            0.733229288073    -1.159677123437    -0.304556508684    12.000000000000
         N           -0.405270711927    -0.337877123437    -0.286056508684    14.003074004430
         C           -0.819970711927     0.232722876563     0.933343491316    12.000000000000
         C           -0.929170711927     0.164522876563    -1.492256508684    12.000000000000
         C            1.977329288073    -0.375877123437    -0.025456508684    12.000000000000
         H            0.892129288073    -1.598777123437    -1.329056508684     1.007825032230
         C           -2.300670711927     0.492922876563     1.029043491316    12.000000000000
         H           -0.237370711927     1.160322876563     1.172443491316     1.007825032230
         H           -0.575970711927    -0.488577123437     1.759443491316     1.007825032230
         H           -1.039470711927    -0.649377123437    -2.232056508684     1.007825032230
         H           -0.248270711927     0.967022876563    -1.901856508684     1.007825032230
         O            1.836829288073     0.853522876563     0.155943491316    15.994914619570
         H           -2.438470711927     1.535122876563     1.375943491316     1.007825032230
         H           -2.797170711927    -0.160877123437     1.785943491316     1.007825032230
         H           -1.893570711927     0.586022876563    -1.299256508684     1.007825032230
         H            2.904529288073    -0.827177123437     0.015243491316     1.007825032230
         H           -2.729670711927     0.303022876563     0.067343491316     1.007825032230

  Charge       = 0
  Multiplicity = 1
  Basis Set: MINIX
    Blend: MINIX
  Basis Set: (MINIX AUX)
    Blend: DEF2-SVP-JKFIT

    Orbital Energies [Eh]
    ---------------------

    Doubly Occupied:

       1A    -20.345256     2A    -15.364973     3A    -11.270924
       4A    -11.213562     5A    -11.176686     6A    -11.174556
       7A    -11.136491     8A     -1.371212     9A     -1.235616
      10A     -1.032951    11A     -0.987889    12A     -0.906611
      13A     -0.820705    14A     -0.753911    15A     -0.694268
      16A     -0.670045    17A     -0.645280    18A     -0.606311
      19A     -0.578082    20A     -0.559376    21A     -0.553723
      22A     -0.521276    23A     -0.509771    24A     -0.500581
      25A     -0.460413    26A     -0.454389    27A     -0.419722
      28A     -0.305885

  @DF-RHF Final Energy:  -322.76341080611439

   => Energetics <=

    Nuclear Repulsion Energy =            326.9544397618465155
    One-Electron Energy =               -1086.8947921930428038
    Two-Electron Energy =                 437.1769416250818949
    Total Energy =                       -322.7634108061143934

  Dipole Moment: [D]
     X:    -0.0598      Y:    -2.2153      Z:    -0.3732     Total:     2.2473

  Basis Set: MINIX
    Blend: MINIX

  Mulliken Charges: (a.u.)
   Center  Symbol    Alpha    Beta     Spin     Total
       1     H     0.43012  0.43012  0.00000  0.13975
       2     C     3.06675  3.06675  0.00000 -0.13351
       3     N     3.67022  3.67022  0.00000 -0.34044
       4     C     3.05764  3.05764  0.00000 -0.11529
       5     C     3.11851  3.11851  0.00000 -0.23703
       6     C     2.93043  2.93043  0.00000  0.13915
       7     H     0.42805  0.42805  0.00000  0.14391
       8     C     3.18347  3.18347  0.00000 -0.36694
       9     H     0.43703  0.43703  0.00000  0.12593
      10     H     0.44239  0.44239  0.00000  0.11523
      11     H     0.44113  0.44113  0.00000  0.11773
      12     H     0.44204  0.44204  0.00000  0.11593
      13     O     4.17210  4.17210  0.00000 -0.34419
      14     H     0.43720  0.43720  0.00000  0.12561
      15     H     0.43867  0.43867  0.00000  0.12267
      16     H     0.43542  0.43542  0.00000  0.12916
      17     H     0.43185  0.43185  0.00000  0.13629
      18     H     0.43698  0.43698  0.00000  0.12604

   Total alpha = 28.00000, Total beta = 28.00000, Total charge =  0.00000

*** Psi4 exiting successfully. Buy a developer a beer!
