                               Psi4 1.5 release

  ==> Input File <==

--------------------------------------------------------------------------
molecule {
0 1
C -0.563712849828 -0.226492940823 0.380391040200
N 0.612777848601 -0.906280244297 0.434955264092
C 1.838422773126 -0.557763370741 -0.164013047210
C 2.705304315703 -1.598157736206 -0.519815150991
H 0.618485927171 -1.649036949364 1.150911903830
C 2.233817966371 0.772721561398 -0.355928301122
C -1.572727077891 -0.548477361001 1.267010309433
N -2.590425887101 -1.574249772932 2.998233269102
C -2.933765060844 -0.074854075383 1.351975643454
C -1.384553005968 -1.543999105186 2.326722405601
C -3.514753814059 -0.712527750839 2.404574366053
C -0.774222385430 0.765373686117 -0.690681123152
C -1.254174670507 2.045778810611 -0.386525135040
C -0.509875437222 0.419713866858 -2.023234591879
C -1.462914621891 2.972156972317 -1.407606789620
C -0.726948155727 1.347689886183 -3.037865890116
C -1.200705567233 2.625931387797 -2.733586576907
C 3.947503641537 -1.312676616611 -1.080402748329
C 3.469089765274 1.045658561372 -0.938556651698
C 4.331731336313 0.010210839099 -1.301193122969
H 2.390083310976 -2.627420943336 -0.363085727852
H 1.585397328148 1.583799735206 -0.041479991065
H -2.767487991396 -2.206593535014 3.767588468517
O -0.382668090957 -2.243853127674 2.589972236012
H -1.442575962317 2.312250217225 0.650678663512
H -0.142884425176 -0.577252811762 -2.254796250865
H -1.827315996583 3.967740890843 -1.166630884098
H -0.527087759433 1.073683969345 -4.070733779827
H -1.364260363602 3.349425227969 -3.528175536900
H 4.612899062605 -2.128431983304 -1.351304908323
H 3.768269159493 2.080172394605 -1.087594430332
H -3.415382945437 0.639437596205 0.698914839281
H -4.519533553330 -0.631402330319 2.796879594285
H 5.297352472089 0.233066463053 -1.746706453842
no_reorient
}
memory 8.166666666666666GB
set_num_threads(2)
psi4_io.set_default_path("/scratch/bdw2292/Psi4-1_16_Index_0-farH_in17")
set freeze_core True
set PROPERTIES_ORIGIN ["COM"]
set cubeprop_tasks ['esp']
set basis 6-311G**
E, wfn = properties('mp2',properties=['dipole'],return_wfn=True)
cubeprop(wfn)
fchk(wfn, "1_16_Index_0-dma.fchk")
clean()
--------------------------------------------------------------------------

    Molecular point group: c1
  Charge       = 0
  Multiplicity = 1
  Basis Set: 6-311G**
    Blend: 6-311G**
  Basis Set: (6-311G** AUX)
    Blend: CC-PVTZ-JKFIT

    Orbital Energies [Eh]
    ---------------------

    Doubly Occupied:

       1A    -20.501028     2A    -15.588012     3A    -15.586291
       4A    -11.338722     5A    -11.320660     6A    -11.284753
       7A    -11.264012     8A    -11.260245     9A    -11.252896
      10A    -11.251959    11A    -11.251539    12A    -11.249321
      13A    -11.248149    14A    -11.239462    15A    -11.239204
      16A    -11.234127    17A    -11.233917    18A    -11.231742
      19A    -11.221791    20A    -11.217725    21A     -1.358725
      22A     -1.278678    23A     -1.258351    24A     -1.170714
      25A     -1.146917    26A     -1.083258    27A     -1.038849
      28A     -1.029388    29A     -1.018088    30A     -1.012341
      31A     -0.965277    32A     -0.901683    33A     -0.846762
      34A     -0.843123    35A     -0.834846    36A     -0.807501
      37A     -0.788548    38A     -0.765537    39A     -0.725522
      40A     -0.704271    41A     -0.692774    42A     -0.669020
      43A     -0.667551    44A     -0.645394    45A     -0.637421
      46A     -0.619076    47A     -0.610182    48A     -0.602122
      49A     -0.593668    50A     -0.591228    51A     -0.589206
      52A     -0.586568    53A     -0.578429    54A     -0.553952
      55A     -0.535569    56A     -0.523211    57A     -0.515273
      58A     -0.512454    59A     -0.506421    60A     -0.497802
      61A     -0.476370    62A     -0.460366    63A     -0.409990
      64A     -0.386517    65A     -0.353492    66A     -0.350912
      67A     -0.336361    68A     -0.314023    69A     -0.260549

  @DF-RHF Final Energy:  -835.84844107914500

   => Energetics <=

    Nuclear Repulsion Energy =           1429.6294596363816254
    One-Electron Energy =               -3975.6161363172864185
    Two-Electron Energy =                1710.1382356017595612
    Total Energy =                       -835.8484410791450046
  Basis Set: (6-311G** AUX)
    Blend: CC-PVTZ-RI
    Molecular point group: c1

    Geometry (in Angstrom), charge = 0, multiplicity = 1:

       Center              X                  Y                   Z               Mass
    ------------   -----------------  -----------------  -----------------  -----------------
         C           -0.563712849828    -0.226492940823     0.380391040200    12.000000000000
         N            0.612777848601    -0.906280244297     0.434955264092    14.003074004430
         C            1.838422773126    -0.557763370741    -0.164013047210    12.000000000000
         C            2.705304315703    -1.598157736206    -0.519815150991    12.000000000000
         H            0.618485927171    -1.649036949364     1.150911903830     1.007825032230
         C            2.233817966371     0.772721561398    -0.355928301122    12.000000000000
         C           -1.572727077891    -0.548477361001     1.267010309433    12.000000000000
         N           -2.590425887101    -1.574249772932     2.998233269102    14.003074004430
         C           -2.933765060844    -0.074854075383     1.351975643454    12.000000000000
         C           -1.384553005968    -1.543999105186     2.326722405601    12.000000000000
         C           -3.514753814059    -0.712527750839     2.404574366053    12.000000000000
         C           -0.774222385430     0.765373686117    -0.690681123152    12.000000000000
         C           -1.254174670507     2.045778810611    -0.386525135040    12.000000000000
         C           -0.509875437222     0.419713866858    -2.023234591879    12.000000000000
         C           -1.462914621891     2.972156972317    -1.407606789620    12.000000000000
         C           -0.726948155727     1.347689886183    -3.037865890116    12.000000000000
         C           -1.200705567233     2.625931387797    -2.733586576907    12.000000000000
         C            3.947503641537    -1.312676616611    -1.080402748329    12.000000000000
         C            3.469089765274     1.045658561372    -0.938556651698    12.000000000000
         C            4.331731336313     0.010210839099    -1.301193122969    12.000000000000
         H            2.390083310976    -2.627420943336    -0.363085727852     1.007825032230
         H            1.585397328148     1.583799735206    -0.041479991065     1.007825032230
         H           -2.767487991396    -2.206593535014     3.767588468517     1.007825032230
         O           -0.382668090957    -2.243853127674     2.589972236012    15.994914619570
         H           -1.442575962317     2.312250217225     0.650678663512     1.007825032230
         H           -0.142884425176    -0.577252811762    -2.254796250865     1.007825032230
         H           -1.827315996583     3.967740890843    -1.166630884098     1.007825032230
         H           -0.527087759433     1.073683969345    -4.070733779827     1.007825032230
         H           -1.364260363602     3.349425227969    -3.528175536900     1.007825032230
         H            4.612899062605    -2.128431983304    -1.351304908323     1.007825032230
         H            3.768269159493     2.080172394605    -1.087594430332     1.007825032230
         H           -3.415382945437     0.639437596205     0.698914839281     1.007825032230
         H           -4.519533553330    -0.631402330319     2.796879594285     1.007825032230
         H            5.297352472089     0.233066463053    -1.746706453842     1.007825032230

  Basis Set: 6-311G**
    Blend: 6-311G**
  Basis Set: (6-311G** AUX)
    Blend: CC-PVTZ-JKFIT
	 Reference Energy          =    -835.8484410791450046 [Eh]
	 Singles Energy            =      -0.0000000000000000 [Eh]
	 Same-Spin Energy          =      -0.7793570931056789 [Eh]
	 Opposite-Spin Energy      =      -2.0937198752556880 [Eh]
	 Correlation Energy        =      -2.8730769683613668 [Eh]
	 Total Energy              =    -838.7215180475063789 [Eh]

	 ================> DF-SCS-MP2 Energies <==================
	-----------------------------------------------------------
	 SCS Same-Spin Scale       =       0.3333333333333333 [-]
	 SCS Opposite-Spin Scale   =       1.2000000000000000 [-]
	 SCS Same-Spin Energy      =      -0.2597856977018930 [Eh]
	 SCS Opposite-Spin Energy  =      -2.5124638503068257 [Eh]
	 SCS Correlation Energy    =      -2.7722495480087188 [Eh]
	 SCS Total Energy          =    -838.6206906271537491 [Eh]
	-----------------------------------------------------------

  Dipole Moment: [D]
     X:    -1.0666      Y:     1.7308      Z:    -1.5348     Total:     2.5473

  Basis Set: 6-311G**
    Blend: 6-311G**
*** Psi4 exiting successfully. Buy a developer a beer!
