                               Psi4 1.3.2 release

  ==> Input File <==

--------------------------------------------------------------------------
molecule {
0 1
N -0.061396793219 -0.027509561709 -0.270982448909
C 1.105860424227 -0.888105009225 -0.126723930169
C -1.249738753629 -0.482064998325 0.415196355605
C 0.191766972760 1.389748453589 -0.084706317292
H 1.904439940159 -0.420456196781 0.465595958488
H 1.533731968244 -1.127934481656 -1.107346990338
H -1.471602235935 -1.513216634107 0.130481303244
H -1.173815671184 -0.431335788012 1.517890494946
H -0.097591988087 1.743573494522 0.919660199315
H -0.392126469504 1.977474855274 -0.802986958117
H 0.831948459998 -1.829341186551 0.357016973599
H -2.098846331625 0.137231972527 0.111137197480
H 1.246729005843 1.613114247989 -0.252531258439
}
memory 8.333333333333334GB
set_num_threads(1)
psi4_io.set_default_path("/scratch/bdw2292/Psi4-4_Index_0-farH_in17")
set freeze_core True
set PROPERTIES_ORIGIN ["COM"]
set cubeprop_tasks ['esp']
E, wfn = properties('mp2/6-311G**',properties=['dipole'],return_wfn=True)
cubeprop(wfn)
fchk(wfn, "4_Index_0-dma.fchk")
clean()
--------------------------------------------------------------------------

    Molecular point group: c1
  Charge       = 0
  Multiplicity = 1
  Basis Set: 6-311G**
    Blend: 6-311G**
  Basis Set: (6-311G** AUX)
    Blend: CC-PVTZ-JKFIT

    Orbital Energies [Eh]
    ---------------------

    Doubly Occupied:

       1A    -15.530986     2A    -11.239392     3A    -11.239085
       4A    -11.238728     5A     -1.214358     6A     -0.949135
       7A     -0.947105     8A     -0.802058     9A     -0.630916
      10A     -0.625968    11A     -0.625065    12A     -0.549574
      13A     -0.540349    14A     -0.513059    15A     -0.500945
      16A     -0.499994    17A     -0.334685

  @DF-RHF Final Energy:  -173.30591136055193

   => Energetics <=

    Nuclear Repulsion Energy =            137.8663758170365554
    One-Electron Energy =                -506.3817718260820016
    Two-Electron Energy =                 195.2094846484935147
    Total Energy =                       -173.3059113605519315
  Basis Set: (6-311G** AUX)
    Blend: CC-PVTZ-RI
    Molecular point group: c1

    Geometry (in Angstrom), charge = 0, multiplicity = 1:

       Center              X                  Y                   Z               Mass
    ------------   -----------------  -----------------  -----------------  -----------------
         N           -0.061396793219    -0.027509561709    -0.270982448909    14.003074004430
         C            1.105860424227    -0.888105009225    -0.126723930169    12.000000000000
         C           -1.249738753629    -0.482064998325     0.415196355605    12.000000000000
         C            0.191766972760     1.389748453589    -0.084706317292    12.000000000000
         H            1.904439940159    -0.420456196781     0.465595958488     1.007825032230
         H            1.533731968244    -1.127934481656    -1.107346990338     1.007825032230
         H           -1.471602235935    -1.513216634107     0.130481303244     1.007825032230
         H           -1.173815671184    -0.431335788012     1.517890494946     1.007825032230
         H           -0.097591988087     1.743573494522     0.919660199315     1.007825032230
         H           -0.392126469504     1.977474855274    -0.802986958117     1.007825032230
         H            0.831948459998    -1.829341186551     0.357016973599     1.007825032230
         H           -2.098846331625     0.137231972527     0.111137197480     1.007825032230
         H            1.246729005843     1.613114247989    -0.252531258439     1.007825032230

  Basis Set: 6-311G**
    Blend: 6-311G**
  Basis Set: (6-311G** AUX)
    Blend: CC-PVTZ-JKFIT
	 Reference Energy          =    -173.3059113605519315 [Eh]
	 Singles Energy            =      -0.0000000000000000 [Eh]
	 Same-Spin Energy          =      -0.1468654341990377 [Eh]
	 Opposite-Spin Energy      =      -0.4989536658972065 [Eh]
	 Correlation Energy        =      -0.6458191000962441 [Eh]
	 Total Energy              =    -173.9517304606481787 [Eh]

	 ================> DF-SCS-MP2 Energies <==================
	-----------------------------------------------------------
	 SCS Same-Spin Scale       =       0.3333333333333333 [-]
	 SCS Opposite-Spin Scale   =       1.2000000000000000 [-]
	 SCS Same-Spin Energy      =      -0.0489551447330126 [Eh]
	 SCS Opposite-Spin Energy  =      -0.5987443990766478 [Eh]
	 SCS Correlation Energy    =      -0.6476995438096603 [Eh]
	 SCS Total Energy          =    -173.9536109043615966 [Eh]
	-----------------------------------------------------------

  Dipole Moment: [D]
     X:     0.2215      Y:    -0.0125      Z:     0.5530     Total:     0.5958

  Basis Set: 6-311G**
    Blend: 6-311G**
*** Psi4 exiting successfully. Buy a developer a beer!
