                               Psi4 1.3.2 release

  ==> Input File <==

--------------------------------------------------------------------------
molecule {
0 1
N -0.061396793219 -0.027509561709 -0.270982448909
C 1.105860424227 -0.888105009225 -0.126723930169
C -1.249738753629 -0.482064998325 0.415196355605
C 0.191766972760 1.389748453589 -0.084706317292
H 1.904439940159 -0.420456196781 0.465595958488
H 1.533731968244 -1.127934481656 -1.107346990338
H -1.471602235935 -1.513216634107 0.130481303244
H -1.173815671184 -0.431335788012 1.517890494946
H -0.097591988087 1.743573494522 0.919660199315
H -0.392126469504 1.977474855274 -0.802986958117
H 0.831948459998 -1.829341186551 0.357016973599
H -2.098846331625 0.137231972527 0.111137197480
H 1.246729005843 1.613114247989 -0.252531258439
}
memory 8.333333333333334GB
set_num_threads(1)
psi4_io.set_default_path("/scratch/bdw2292/Psi4-4_Index_0-farH_in17")
set maxiter 500
set freeze_core True
set PROPERTIES_ORIGIN ["COM"]
set cubeprop_tasks ['esp']
E, wfn = properties('mp2/aug-cc-pVTZ',properties=['dipole'],return_wfn=True)
cubeprop(wfn)
fchk(wfn, "4_Index_0-esp.fchk")
oeprop(wfn,"GRID_ESP","WIBERG_LOWDIN_INDICES","MULLIKEN_CHARGES")
clean()
--------------------------------------------------------------------------

    Molecular point group: c1
  Charge       = 0
  Multiplicity = 1
  Basis Set: AUG-CC-PVTZ
    Blend: AUG-CC-PVTZ
  Basis Set: (AUG-CC-PVTZ AUX)
    Blend: AUG-CC-PVTZ-JKFIT

    Orbital Energies [Eh]
    ---------------------

    Doubly Occupied:

       1A    -15.537629     2A    -11.239909     3A    -11.239874
       4A    -11.239428     5A     -1.216155     6A     -0.949738
       7A     -0.947812     8A     -0.802955     9A     -0.632475
      10A     -0.627066    11A     -0.626120    12A     -0.550610
      13A     -0.541421    14A     -0.513535    15A     -0.501838
      16A     -0.500960    17A     -0.337171

  @DF-RHF Final Energy:  -173.32616407301401

   => Energetics <=

    Nuclear Repulsion Energy =            137.8663758170365554
    One-Electron Energy =                -506.3756866669173178
    Two-Electron Energy =                 195.1831467768667494
    Total Energy =                       -173.3261640730140130
  Basis Set: (AUG-CC-PVTZ AUX)
    Blend: AUG-CC-PVTZ-RI
    Molecular point group: c1

    Geometry (in Angstrom), charge = 0, multiplicity = 1:

       Center              X                  Y                   Z               Mass
    ------------   -----------------  -----------------  -----------------  -----------------
         N           -0.061396793219    -0.027509561709    -0.270982448909    14.003074004430
         C            1.105860424227    -0.888105009225    -0.126723930169    12.000000000000
         C           -1.249738753629    -0.482064998325     0.415196355605    12.000000000000
         C            0.191766972760     1.389748453589    -0.084706317292    12.000000000000
         H            1.904439940159    -0.420456196781     0.465595958488     1.007825032230
         H            1.533731968244    -1.127934481656    -1.107346990338     1.007825032230
         H           -1.471602235935    -1.513216634107     0.130481303244     1.007825032230
         H           -1.173815671184    -0.431335788012     1.517890494946     1.007825032230
         H           -0.097591988087     1.743573494522     0.919660199315     1.007825032230
         H           -0.392126469504     1.977474855274    -0.802986958117     1.007825032230
         H            0.831948459998    -1.829341186551     0.357016973599     1.007825032230
         H           -2.098846331625     0.137231972527     0.111137197480     1.007825032230
         H            1.246729005843     1.613114247989    -0.252531258439     1.007825032230

  Basis Set: AUG-CC-PVTZ
    Blend: AUG-CC-PVTZ
  Basis Set: (AUG-CC-PVTZ AUX)
    Blend: AUG-CC-PVTZ-JKFIT
	 Reference Energy          =    -173.3261640730140130 [Eh]
	 Singles Energy            =      -0.0000000000000000 [Eh]
	 Same-Spin Energy          =      -0.1683619941207648 [Eh]
	 Opposite-Spin Energy      =      -0.5957086857103426 [Eh]
	 Correlation Energy        =      -0.7640706798311074 [Eh]
	 Total Energy              =    -174.0902347528451344 [Eh]

	 ================> DF-SCS-MP2 Energies <==================
	-----------------------------------------------------------
	 SCS Same-Spin Scale       =       0.3333333333333333 [-]
	 SCS Opposite-Spin Scale   =       1.2000000000000000 [-]
	 SCS Same-Spin Energy      =      -0.0561206647069216 [Eh]
	 SCS Opposite-Spin Energy  =      -0.7148504228524112 [Eh]
	 SCS Correlation Energy    =      -0.7709710875593327 [Eh]
	 SCS Total Energy          =    -174.0971351605733446 [Eh]
	-----------------------------------------------------------

  Dipole Moment: [D]
     X:     0.1955      Y:    -0.0017      Z:     0.5511     Total:     0.5847

  Basis Set: AUG-CC-PVTZ
    Blend: AUG-CC-PVTZ

  Mulliken Charges: (a.u.)
   Center  Symbol    Alpha    Beta     Spin     Total
       1     N     3.52832  3.52832  0.00000 -0.05664
       2     C     3.46641  3.46641  0.00000 -0.93282
       3     C     3.52841  3.52841  0.00000 -1.05683
       4     C     3.50759  3.50759  0.00000 -1.01517
       5     H     0.32439  0.32439  0.00000  0.35123
       6     H     0.33937  0.33937  0.00000  0.32126
       7     H     0.31282  0.31282  0.00000  0.37436
       8     H     0.33339  0.33339  0.00000  0.33323
       9     H     0.34095  0.34095  0.00000  0.31810
      10     H     0.33008  0.33008  0.00000  0.33984
      11     H     0.32757  0.32757  0.00000  0.34485
      12     H     0.34036  0.34036  0.00000  0.31928
      13     H     0.32034  0.32034  0.00000  0.35931

   Total alpha = 17.00000, Total beta = 17.00000, Total charge = -0.00000

*** Psi4 exiting successfully. Buy a developer a beer!
