                               Psi4 1.3.2 release

  ==> Input File <==

--------------------------------------------------------------------------
molecule {
0 1
 N   -0.077500   -0.068400   -0.390500
 C    1.075100   -0.891700   -0.223600
 C   -1.231100   -0.489000    0.344100
 C    0.147700    1.331300   -0.196000
 H    1.895700   -0.367800    0.331700
 H    1.497000   -1.120300   -1.242600
 H   -1.513000   -1.539000    0.178300
 H   -1.180800   -0.235700    1.432400
 H   -0.199700    1.598100    0.831800
 H   -0.429300    1.905900   -0.961700
 H    0.889300   -1.867000    0.245800
 H   -2.099900    0.118800   -0.041200
 H    1.226400    1.624800   -0.308600
}
set {
  geom_maxiter 400
  g_convergence GAU
  dynamic_level 1
}
set optking {
  frozen_dihedral = ("
    3 1 2 5
, 2 1 3 7
, 2 1 4 9
  ")
}
memory 8.333333333333334GB
set_num_threads(1)
psi4_io.set_default_path("/scratch/bdw2292/Psi4-4_Index_0-farH_in17")
for _ in range(1):
  try:
    set opt_coordinates both
    optimize('mp2/6-31G*')
    break
  except OptimizationConvergenceError:
    break
  else:
    try:
      set opt_coordinates cartesian
      optimize('mp2/6-31G*')
      break
    except OptimizationConvergenceError:
      pass
clean()
--------------------------------------------------------------------------

    Molecular point group: c1
  Charge       = 0
  Multiplicity = 1
  Basis Set: 6-31G*
    Blend: 6-31G*
  Basis Set: (6-31G* AUX)
    Blend: CC-PVDZ-JKFIT
  @DF-RHF Final Energy:  -173.24847686715216
    Total Energy =                       -173.2484768671521635
  Basis Set: (6-31G* AUX)
    Blend: CC-PVDZ-RI
    Molecular point group: c1
  Basis Set: 6-31G*
    Blend: 6-31G*
  Basis Set: (6-31G* AUX)
    Blend: CC-PVDZ-JKFIT
  Basis Set: (6-31G* AUX)
    Blend: CC-PVDZ-JKFIT
	 Reference Energy          =    -173.2484768671521635 [Eh]
	 Singles Energy            =      -0.0000000000000000 [Eh]
	 Same-Spin Energy          =      -0.1368251097956294 [Eh]
	 Opposite-Spin Energy      =      -0.4418857757009148 [Eh]
	 Correlation Energy        =      -0.5787108854965441 [Eh]
	 Total Energy              =    -173.8271877526487117 [Eh]
	 SCS Total Energy          =    -173.8243481679251374 [Eh]
  @DF-RHF Final Energy:  -173.25698379558256
    Total Energy =                       -173.2569837955825562
  @DF-RHF Final Energy:  -173.25907426472565
    Total Energy =                       -173.2590742647256548
  @DF-RHF Final Energy:  -173.25912290342777
    Total Energy =                       -173.2591229034277660
  @DF-RHF Final Energy:  -173.25912159677193
    Total Energy =                       -173.2591215967719336
  @DF-RHF Final Energy:  -173.25933293799835
    Total Energy =                       -173.2593329379983516
  @DF-RHF Final Energy:  -173.25912159695895
    Total Energy =                       -173.2591215969589484
  Charge       = 0
  Multiplicity = 1
  Basis Set: 6-31G*
    Blend: 6-31G*
  Basis Set: (6-31G* AUX)
    Blend: CC-PVDZ-JKFIT

    Orbital Energies [Eh]
    ---------------------

    Doubly Occupied:

       1A    -15.538781     2A    -11.239902     3A    -11.239619
       4A    -11.239207     5A     -1.213833     6A     -0.948810
       7A     -0.946726     8A     -0.802178     9A     -0.630402
      10A     -0.625820    11A     -0.624936    12A     -0.549538
      13A     -0.540304    14A     -0.513328    15A     -0.500764
      16A     -0.499702    17A     -0.332892

  @DF-RHF Final Energy:  -173.25914322669405

   => Energetics <=

    Nuclear Repulsion Energy =            137.8663758170276026
    One-Electron Energy =                -506.2775550368855875
    Two-Electron Energy =                 195.1520359931639632
    Total Energy =                       -173.2591432266940501

  Dipole Moment: [D]
     X:     0.2577      Y:     0.0045      Z:     0.7425     Total:     0.7859

  Basis Set: (6-31G* AUX)
    Blend: CC-PVDZ-RI
    Molecular point group: c1
  Basis Set: 6-31G*
    Blend: 6-31G*
  Basis Set: (6-31G* AUX)
    Blend: CC-PVDZ-JKFIT
  Basis Set: (6-31G* AUX)
    Blend: CC-PVDZ-JKFIT
	 Reference Energy          =    -173.2591432266940501 [Eh]
	 Singles Energy            =      -0.0000000000000000 [Eh]
	 Same-Spin Energy          =      -0.1359275522777397 [Eh]
	 Opposite-Spin Energy      =      -0.4399932510747910 [Eh]
	 Correlation Energy        =      -0.5759208033525307 [Eh]
	 Total Energy              =    -173.8350640300465670 [Eh]

	 ================> DF-SCS-MP2 Energies <==================
	-----------------------------------------------------------
	 SCS Same-Spin Scale       =       0.3333333333333333 [-]
	 SCS Opposite-Spin Scale   =       1.2000000000000000 [-]
	 SCS Same-Spin Energy      =      -0.0453091840925799 [Eh]
	 SCS Opposite-Spin Energy  =      -0.5279919012897492 [Eh]
	 SCS Correlation Energy    =      -0.5733010853823290 [Eh]
	 SCS Total Energy          =    -173.8324443120763760 [Eh]
	-----------------------------------------------------------

  -Total Gradient:
     Atom            X                  Y                   Z
    ------   -----------------  -----------------  -----------------
       1       -0.000892666269     0.002016365764     0.006656471804
       2       -0.001242682033    -0.001972527916    -0.000713316040
       3       -0.000733443100    -0.001407043651    -0.001986863901
       4        0.005931035435    -0.000966731291     0.000593754669
       5        0.001327823670     0.001331156774    -0.002875722244
       6       -0.000017159903     0.000001100005     0.000012881629
       7       -0.000048442586     0.000040661835    -0.000081773834
       8        0.000011241218     0.000000083586    -0.000005605792
       9       -0.004348689570     0.000973838808    -0.001620669015
      10        0.000012197689    -0.000009244734     0.000009606798
      11        0.000007025397    -0.000008143974     0.000012863110
      12        0.000006015027    -0.000005023051    -0.000001514997
      13       -0.000012254976     0.000005507843    -0.000000112187

  **** Optimization is complete! (in 2 steps) ****
    Final optimized geometry and variables:
    Molecular point group: c1

    Geometry (in Angstrom), charge = 0, multiplicity = 1:

    N           -0.061396793219    -0.027509561709    -0.270982448909
    C            1.105860424227    -0.888105009225    -0.126723930169
    C           -1.249738753629    -0.482064998325     0.415196355605
    C            0.191766972760     1.389748453589    -0.084706317292
    H            1.904439940159    -0.420456196781     0.465595958488
    H            1.533731968244    -1.127934481656    -1.107346990338
    H           -1.471602235935    -1.513216634107     0.130481303244
    H           -1.173815671184    -0.431335788012     1.517890494946
    H           -0.097591988087     1.743573494522     0.919660199315
    H           -0.392126469504     1.977474855274    -0.802986958117
    H            0.831948459998    -1.829341186551     0.357016973599
    H           -2.098846331625     0.137231972527     0.111137197480
    H            1.246729005843     1.613114247989    -0.252531258439

*** Psi4 exiting successfully. Buy a developer a beer!
