                               Psi4 1.3.2 release

  ==> Input File <==

--------------------------------------------------------------------------
molecule {
0 1
N         -6.53810       -0.48150       -0.39510
C         -5.39960       -1.30330       -0.41360
C         -6.95280        0.08910        0.82430
C         -7.06200        0.02090       -1.60130
H         -5.54410       -2.13730        0.30810
H         -5.24070       -1.74240       -1.43810
H         -6.37020        1.01670        1.06340
H         -6.70880       -0.63220        1.65040
H         -7.17230       -0.79300       -2.34110
H         -6.38110        0.82340       -2.01090
H         -4.54760       -0.71240       -0.14940
H         -7.99610        0.31140        0.74040
H         -8.02640        0.44240       -1.40830
}
memory 100GB
set_num_threads(12)
psi4_io.set_default_path("/scratch/bdw2292/Psi4-farH_in17")
set maxiter 500
set freeze_core True
set PROPERTIES_ORIGIN ["COM"]
set cubeprop_tasks ['esp']
E, wfn = properties('hf/MINIX',properties=['dipole'],return_wfn=True)
cubeprop(wfn)
fchk(wfn, "farH_in17-esp_frag.fchk")
oeprop(wfn,"WIBERG_LOWDIN_INDICES","MULLIKEN_CHARGES")
clean()
--------------------------------------------------------------------------

    Molecular point group: c1

    Geometry (in Angstrom), charge = 0, multiplicity = 1:

       Center              X                  Y                   Z               Mass
    ------------   -----------------  -----------------  -----------------  -----------------
         N           -0.055204027805    -0.066554742969     0.001581616496    14.003074004430
         C            1.083295972195    -0.888354742969    -0.016918383504    12.000000000000
         C           -0.469904027805     0.504045257031     1.220981616496    12.000000000000
         C           -0.579104027805     0.435845257031    -1.204618383504    12.000000000000
         H            0.938795972195    -1.722354742969     0.704781616496     1.007825032230
         H            1.242195972195    -1.327454742969    -1.041418383504     1.007825032230
         H            0.112695972195     1.431645257031     1.460081616496     1.007825032230
         H           -0.225904027805    -0.217254742969     2.047081616496     1.007825032230
         H           -0.689404027805    -0.378054742969    -1.944418383504     1.007825032230
         H            0.101795972195     1.238345257031    -1.614218383504     1.007825032230
         H            1.935295972195    -0.297454742969     0.247281616496     1.007825032230
         H           -1.513204027805     0.726345257031     1.137081616496     1.007825032230
         H           -1.543504027805     0.857345257031    -1.011618383504     1.007825032230

  Charge       = 0
  Multiplicity = 1
  Basis Set: MINIX
    Blend: MINIX
  Basis Set: (MINIX AUX)
    Blend: DEF2-SVP-JKFIT

    Orbital Energies [Eh]
    ---------------------

    Doubly Occupied:

       1A    -15.352793     2A    -11.174261     3A    -11.174027
       4A    -11.173356     5A     -1.223182     6A     -0.957077
       7A     -0.952548     8A     -0.780192     9A     -0.647333
      10A     -0.633761    11A     -0.629552    12A     -0.543017
      13A     -0.534340    14A     -0.511058    15A     -0.506540
      16A     -0.497851    17A     -0.298637

  @DF-RHF Final Energy:  -172.08350249653924

   => Energetics <=

    Nuclear Repulsion Energy =            139.8244671068571847
    One-Electron Energy =                -508.6369137389538082
    Two-Electron Energy =                 196.7289441355573842
    Total Energy =                       -172.0835024965392392

  Dipole Moment: [D]
     X:     0.1465      Y:     0.1024      Z:    -0.0554     Total:     0.1871

  Basis Set: MINIX
    Blend: MINIX

  Mulliken Charges: (a.u.)
   Center  Symbol    Alpha    Beta     Spin     Total
       1     N     3.67647  3.67647  0.00000 -0.35294
       2     C     3.11911  3.11911  0.00000 -0.23821
       3     C     3.11726  3.11726  0.00000 -0.23453
       4     C     3.11795  3.11795  0.00000 -0.23590
       5     H     0.44048  0.44048  0.00000  0.11904
       6     H     0.43648  0.43648  0.00000  0.12703
       7     H     0.44750  0.44750  0.00000  0.10499
       8     H     0.43853  0.43853  0.00000  0.12293
       9     H     0.43957  0.43957  0.00000  0.12086
      10     H     0.44637  0.44637  0.00000  0.10726
      11     H     0.44427  0.44427  0.00000  0.11146
      12     H     0.43788  0.43788  0.00000  0.12425
      13     H     0.43812  0.43812  0.00000  0.12376

   Total alpha = 17.00000, Total beta = 17.00000, Total charge = -0.00000

*** Psi4 exiting successfully. Buy a developer a beer!
