                               Psi4 1.3.2 release

  ==> Input File <==

--------------------------------------------------------------------------
molecule {
0 1
C -0.658856375563 1.548506549944 0.152177589276
C -0.788186994833 0.212719283733 0.407795380857
N 0.121530351948 -0.403215898823 1.287403932432
C 1.474072920541 -0.645758305147 0.905534529819
H -0.288161752325 -1.246470569632 1.686579341666
C 0.330385069003 2.438592056671 0.721658580689
N -0.954796572081 3.634071544464 -0.695455116091
C -1.507109342559 2.359081689956 -0.775849008007
C 0.112935650704 3.671538913707 0.198743568916
C -1.871559829657 -0.650599414364 -0.092061434610
C -3.221690415976 -0.314066784683 0.068308554205
C -1.528115595697 -1.892630444093 -0.649975050380
C -4.211931463143 -1.195812417666 -0.354682020398
C -2.524165877123 -2.763383684960 -1.085539951866
C -3.868010811876 -2.419581977260 -0.932855043481
C 2.308230392462 -1.303776493641 1.816423833694
C 2.013617807646 -0.209582910553 -0.309007555292
C 3.633978210782 -1.576411670705 1.497463946051
C 3.345571589701 -0.473891862193 -0.617101072715
C 4.182929811180 -1.140523070501 0.284923839229
H -1.335704263311 4.416019615013 -1.210963464067
O -2.467195960131 2.051350549461 -1.480533430697
H -3.485302505575 0.639093947502 0.515878919165
H -0.477904955780 -2.153485376052 -0.769625268177
H -5.258426304730 -0.931014605105 -0.226705791572
H -2.251780817937 -3.714384230604 -1.536550052321
H -4.645894441580 -3.102479851585 -1.265063289000
H 1.904914564143 -1.624243306258 2.775312693186
H 1.386537171127 0.306204310387 -1.029764270165
H 4.261225349291 -2.101879854564 2.215531317232
H 3.746292875241 -0.139267591384 -1.572541841271
N 5.506736850599 -1.463271161480 -0.065859052343
H 1.078216168126 2.172502156939 1.454816391895
H 0.630385247985 4.602647297003 0.392758441157
H 6.109683648317 -1.589206426215 0.741081555098
H 5.923314360062 -0.788743985455 -0.699628528801
}
memory 8.333333333333334GB
set_num_threads(1)
psi4_io.set_default_path("/scratch/bdw2292/Psi4-7_1_Index_0_GrowFragment_0-farH_in17")
set freeze_core True
set PROPERTIES_ORIGIN ["COM"]
set cubeprop_tasks ['esp']
E, wfn = properties('mp2/6-311G**',properties=['dipole'],return_wfn=True)
cubeprop(wfn)
fchk(wfn, "7_1_Index_0_GrowFragment_0-dma.fchk")
clean()
--------------------------------------------------------------------------

    Molecular point group: c1
  Charge       = 0
  Multiplicity = 1
  Basis Set: 6-311G**
    Blend: 6-311G**
  Basis Set: (6-311G** AUX)
    Blend: CC-PVTZ-JKFIT

    Orbital Energies [Eh]
    ---------------------

    Doubly Occupied:

       1A    -20.505366     2A    -15.586666     3A    -15.579576
       4A    -15.559216     5A    -11.347330     6A    -11.302696
       7A    -11.277524     8A    -11.274280     9A    -11.274047
      10A    -11.245032    11A    -11.240135    12A    -11.237842
      13A    -11.237640    14A    -11.236629    15A    -11.234311
      16A    -11.234276    17A    -11.233205    18A    -11.233162
      19A    -11.231768    20A    -11.231252    21A    -11.219741
      22A     -1.365575    23A     -1.268119    24A     -1.259215
      25A     -1.219628    26A     -1.155975    27A     -1.124169
      28A     -1.075109    29A     -1.033909    30A     -1.018448
      31A     -1.014777    32A     -0.984505    33A     -0.967001
      34A     -0.893216    35A     -0.845646    36A     -0.831787
      37A     -0.820814    38A     -0.810341    39A     -0.791060
      40A     -0.740373    41A     -0.714272    42A     -0.706952
      43A     -0.697084    44A     -0.682965    45A     -0.672402
      46A     -0.651715    47A     -0.633651    48A     -0.617562
      49A     -0.612950    50A     -0.605338    51A     -0.596580
      52A     -0.593247    53A     -0.589064    54A     -0.585989
      55A     -0.583708    56A     -0.575938    57A     -0.559047
      58A     -0.546746    59A     -0.535068    60A     -0.508018
      61A     -0.502925    62A     -0.497467    63A     -0.492351
      64A     -0.486652    65A     -0.461069    66A     -0.434690
      67A     -0.413260    68A     -0.389785    69A     -0.344932
      70A     -0.337359    71A     -0.332783    72A     -0.288350
      73A     -0.264665

  @DF-RHF Final Energy:  -890.87559493525305

   => Energetics <=

    Nuclear Repulsion Energy =           1544.8836619692237946
    One-Electron Energy =               -4281.0066320374162387
    Two-Electron Energy =                1845.2473751329393963
    Total Energy =                       -890.8755949352530479
  Basis Set: (6-311G** AUX)
    Blend: CC-PVTZ-RI
    Molecular point group: c1

    Geometry (in Angstrom), charge = 0, multiplicity = 1:

       Center              X                  Y                   Z               Mass
    ------------   -----------------  -----------------  -----------------  -----------------
         C           -0.658856375563     1.548506549944     0.152177589276    12.000000000000
         C           -0.788186994833     0.212719283733     0.407795380857    12.000000000000
         N            0.121530351948    -0.403215898823     1.287403932432    14.003074004430
         C            1.474072920541    -0.645758305147     0.905534529819    12.000000000000
         H           -0.288161752325    -1.246470569632     1.686579341666     1.007825032230
         C            0.330385069003     2.438592056671     0.721658580689    12.000000000000
         N           -0.954796572081     3.634071544464    -0.695455116091    14.003074004430
         C           -1.507109342559     2.359081689956    -0.775849008007    12.000000000000
         C            0.112935650704     3.671538913707     0.198743568916    12.000000000000
         C           -1.871559829657    -0.650599414364    -0.092061434610    12.000000000000
         C           -3.221690415976    -0.314066784683     0.068308554205    12.000000000000
         C           -1.528115595697    -1.892630444093    -0.649975050380    12.000000000000
         C           -4.211931463143    -1.195812417666    -0.354682020398    12.000000000000
         C           -2.524165877123    -2.763383684960    -1.085539951866    12.000000000000
         C           -3.868010811876    -2.419581977260    -0.932855043481    12.000000000000
         C            2.308230392462    -1.303776493641     1.816423833694    12.000000000000
         C            2.013617807646    -0.209582910553    -0.309007555292    12.000000000000
         C            3.633978210782    -1.576411670705     1.497463946051    12.000000000000
         C            3.345571589701    -0.473891862193    -0.617101072715    12.000000000000
         C            4.182929811180    -1.140523070501     0.284923839229    12.000000000000
         H           -1.335704263311     4.416019615013    -1.210963464067     1.007825032230
         O           -2.467195960131     2.051350549461    -1.480533430697    15.994914619570
         H           -3.485302505575     0.639093947502     0.515878919165     1.007825032230
         H           -0.477904955780    -2.153485376052    -0.769625268177     1.007825032230
         H           -5.258426304730    -0.931014605105    -0.226705791572     1.007825032230
         H           -2.251780817937    -3.714384230604    -1.536550052321     1.007825032230
         H           -4.645894441580    -3.102479851585    -1.265063289000     1.007825032230
         H            1.904914564143    -1.624243306258     2.775312693186     1.007825032230
         H            1.386537171127     0.306204310387    -1.029764270165     1.007825032230
         H            4.261225349291    -2.101879854564     2.215531317232     1.007825032230
         H            3.746292875241    -0.139267591384    -1.572541841271     1.007825032230
         N            5.506736850599    -1.463271161480    -0.065859052343    14.003074004430
         H            1.078216168126     2.172502156939     1.454816391895     1.007825032230
         H            0.630385247985     4.602647297003     0.392758441157     1.007825032230
         H            6.109683648317    -1.589206426215     0.741081555098     1.007825032230
         H            5.923314360062    -0.788743985455    -0.699628528801     1.007825032230

  Basis Set: 6-311G**
    Blend: 6-311G**
  Basis Set: (6-311G** AUX)
    Blend: CC-PVTZ-JKFIT
	 Reference Energy          =    -890.8755949352530479 [Eh]
	 Singles Energy            =      -0.0000000000000000 [Eh]
	 Same-Spin Energy          =      -0.8256284289327329 [Eh]
	 Opposite-Spin Energy      =      -2.2263971923046260 [Eh]
	 Correlation Energy        =      -3.0520256212373589 [Eh]
	 Total Energy              =    -893.9276205564904103 [Eh]

	 ================> DF-SCS-MP2 Energies <==================
	-----------------------------------------------------------
	 SCS Same-Spin Scale       =       0.3333333333333333 [-]
	 SCS Opposite-Spin Scale   =       1.2000000000000000 [-]
	 SCS Same-Spin Energy      =      -0.2752094763109110 [Eh]
	 SCS Opposite-Spin Energy  =      -2.6716766307655511 [Eh]
	 SCS Correlation Energy    =      -2.9468861070764620 [Eh]
	 SCS Total Energy          =    -893.8224810423295139 [Eh]
	-----------------------------------------------------------

  Dipole Moment: [D]
     X:     2.8224      Y:     0.8335      Z:     1.4901     Total:     3.2986

  Basis Set: 6-311G**
    Blend: 6-311G**
*** Psi4 exiting successfully. Buy a developer a beer!
