                               Psi4 1.3.2 release

  ==> Input File <==

--------------------------------------------------------------------------
molecule {
0 1
 C    0.907600    0.010000   -0.041700
 N    2.325200    0.076800   -0.091700
 C    0.158600    1.149600    0.168500
 C    0.208500   -1.170800   -0.196600
 C   -1.221000    1.125200    0.223600
 C   -1.177100   -1.196400   -0.141500
 C   -1.916500   -0.055000    0.068600
 H    2.894800    0.011500   -0.960400
 H    0.661300    2.098300    0.295500
 H    0.807700   -2.061000   -0.361400
 H   -1.787800    2.040000    0.390800
 H   -1.698800   -2.132500   -0.265600
 H    2.843600    0.200400    0.803400
 H   -3.006100   -0.096200    0.108700
}
set {
  geom_maxiter 400
  g_convergence GAU
  dynamic_level 1
}
memory 8.333333333333334GB
set_num_threads(1)
psi4_io.set_default_path("/scratch/bdw2292/Psi4-16_Index_0-farH_in17")
for _ in range(1):
  try:
    set opt_coordinates both
    optimize('mp2/6-31G*')
    break
  except OptimizationConvergenceError:
    break
  else:
    try:
      set opt_coordinates cartesian
      optimize('mp2/6-31G*')
      break
    except OptimizationConvergenceError:
      pass
clean()
--------------------------------------------------------------------------

    Molecular point group: c1
  Charge       = 0
  Multiplicity = 1
  Basis Set: 6-31G*
    Blend: 6-31G*
  Basis Set: (6-31G* AUX)
    Blend: CC-PVDZ-JKFIT
  @DF-RHF Final Energy:  -285.71011104573955
    Total Energy =                       -285.7101110457395521
  Basis Set: (6-31G* AUX)
    Blend: CC-PVDZ-RI
    Molecular point group: c1
  Basis Set: 6-31G*
    Blend: 6-31G*
  Basis Set: (6-31G* AUX)
    Blend: CC-PVDZ-JKFIT
  Basis Set: (6-31G* AUX)
    Blend: CC-PVDZ-JKFIT
	 Reference Energy          =    -285.7101110457395521 [Eh]
	 Singles Energy            =      -0.0000000000000000 [Eh]
	 Same-Spin Energy          =      -0.2521798734358009 [Eh]
	 Opposite-Spin Energy      =      -0.6997734291748403 [Eh]
	 Correlation Energy        =      -0.9519533026106413 [Eh]
	 Total Energy              =    -286.6620643483502135 [Eh]
	 SCS Total Energy          =    -286.6338991185613168 [Eh]
  @DF-RHF Final Energy:  -285.71631393765563
    Total Energy =                       -285.7163139376556273
  @DF-RHF Final Energy:  -285.71797840306647
    Total Energy =                       -285.7179784030664678
  @DF-RHF Final Energy:  -285.71370038013856
    Total Energy =                       -285.7137003801385617
  @DF-RHF Final Energy:  -285.71663024033239
    Total Energy =                       -285.7166302403323925
  @DF-RHF Final Energy:  -285.72017179496470
    Total Energy =                       -285.7201717949646991
  @DF-RHF Final Energy:  -285.72380827937820
    Total Energy =                       -285.7238082793782041
  @DF-RHF Final Energy:  -285.72517978610006
    Total Energy =                       -285.7251797861000568
  @DF-RHF Final Energy:  -285.72349536916386
    Total Energy =                       -285.7234953691638566
  @DF-RHF Final Energy:  -285.72517978630697
    Total Energy =                       -285.7251797863069669
  @DF-RHF Final Energy:  -285.72783551776939
    Total Energy =                       -285.7278355177693925
  @DF-RHF Final Energy:  -285.72871424362745
    Total Energy =                       -285.7287142436274507
  @DF-RHF Final Energy:  -285.72885141516326
    Total Energy =                       -285.7288514151632626
  @DF-RHF Final Energy:  -285.72844528217178
    Total Energy =                       -285.7284452821717764
  @DF-RHF Final Energy:  -285.72869297426519
    Total Energy =                       -285.7286929742651864
  @DF-RHF Final Energy:  -285.72878133550762
    Total Energy =                       -285.7287813355076196
  @DF-RHF Final Energy:  -285.72881919808361
    Total Energy =                       -285.7288191980836132
  @DF-RHF Final Energy:  -285.72878417306413
    Total Energy =                       -285.7287841730641276
  @DF-RHF Final Energy:  -285.72877622665283
    Total Energy =                       -285.7287762266528262
  Charge       = 0
  Multiplicity = 1
  Basis Set: 6-31G*
    Blend: 6-31G*
  Basis Set: (6-31G* AUX)
    Blend: CC-PVDZ-JKFIT

    Orbital Energies [Eh]
    ---------------------

    Doubly Occupied:

       1A    -15.565623     2A    -11.274121     3A    -11.233460
       4A    -11.233423     5A    -11.222420     6A    -11.222404
       7A    -11.218556     8A     -1.216899     9A     -1.120065
      10A     -1.006005    11A     -0.979807    12A     -0.825522
      13A     -0.805464    14A     -0.697267    15A     -0.675695
      16A     -0.649092    17A     -0.592102    18A     -0.585619
      19A     -0.575393    20A     -0.527318    21A     -0.500360
      22A     -0.483713    23A     -0.442450    24A     -0.330026
      25A     -0.289994

  @DF-RHF Final Energy:  -285.72878036881070

   => Energetics <=

    Nuclear Repulsion Energy =            271.2266397432079543
    One-Electron Energy =                -923.3652439816473816
    Two-Electron Energy =                 366.4098238696287808
    Total Energy =                       -285.7287803688107033

  Dipole Moment: [D]
     X:     0.8703      Y:    -0.2293      Z:     1.2892     Total:     1.5723

  Basis Set: (6-31G* AUX)
    Blend: CC-PVDZ-RI
    Molecular point group: c1
  Basis Set: 6-31G*
    Blend: 6-31G*
  Basis Set: (6-31G* AUX)
    Blend: CC-PVDZ-JKFIT
  Basis Set: (6-31G* AUX)
    Blend: CC-PVDZ-JKFIT
	 Reference Energy          =    -285.7287803688107033 [Eh]
	 Singles Energy            =      -0.0000000000000000 [Eh]
	 Same-Spin Energy          =      -0.2523610568194758 [Eh]
	 Opposite-Spin Energy      =      -0.7013863646004256 [Eh]
	 Correlation Energy        =      -0.9537474214199014 [Eh]
	 Total Energy              =    -286.6825277902306084 [Eh]

	 ================> DF-SCS-MP2 Energies <==================
	-----------------------------------------------------------
	 SCS Same-Spin Scale       =       0.3333333333333333 [-]
	 SCS Opposite-Spin Scale   =       1.2000000000000000 [-]
	 SCS Same-Spin Energy      =      -0.0841203522731586 [Eh]
	 SCS Opposite-Spin Energy  =      -0.8416636375205107 [Eh]
	 SCS Correlation Energy    =      -0.9257839897936693 [Eh]
	 SCS Total Energy          =    -286.6545643586043752 [Eh]
	-----------------------------------------------------------

  -Total Gradient:
     Atom            X                  Y                   Z
    ------   -----------------  -----------------  -----------------
       1       -0.000020590132    -0.000007173584     0.000007126810
       2        0.000004429893    -0.000021742129    -0.000004812055
       3        0.000003324849     0.000006363604    -0.000021828560
       4        0.000008879114     0.000001962357    -0.000016872336
       5        0.000004597436    -0.000002253962     0.000025365787
       6       -0.000004389078    -0.000005960482     0.000023384746
       7        0.000000447605     0.000002590948    -0.000028373841
       8       -0.000004062835     0.000009868403    -0.000007681940
       9        0.000000006319    -0.000001680871     0.000003785595
      10       -0.000002158693    -0.000000396030     0.000005719100
      11       -0.000002280685     0.000000561677    -0.000005994282
      12       -0.000000989383     0.000001803565    -0.000005702476
      13        0.000012377125     0.000016776268     0.000016164517
      14        0.000000408461    -0.000000719764     0.000009718937

  **** Optimization is complete! (in 10 steps) ****
    Final optimized geometry and variables:
    Molecular point group: c1

    Geometry (in Angstrom), charge = 0, multiplicity = 1:

    C            0.939754357210     0.035457818794    -0.053446943695
    N            2.332789557650     0.105632020069    -0.222252249022
    C            0.196697151823     1.192322939331     0.214150412477
    C            0.259792343251    -1.173773313112    -0.247001332546
    C           -1.191050878766     1.132799961887     0.312696917773
    C           -1.128153853046    -1.226891184529    -0.147305655516
    C           -1.864163149868    -0.074795027932     0.128665175415
    H            2.804813121311    -0.768703477382    -0.015734765949
    H            0.713315611659     2.140186263720     0.354248809433
    H            0.825735891946    -2.077115623473    -0.467568555886
    H           -1.748939861063     2.041002021735     0.527533301631
    H           -1.636492865113    -2.176686474303    -0.294626160786
    H            2.761487108306     0.860330512892     0.303723132257
    H           -2.946705884419    -0.118859252323     0.206729087873

*** Psi4 exiting successfully. Buy a developer a beer!
