                               Psi4 1.3.2 release

  ==> Input File <==

--------------------------------------------------------------------------
molecule {
0 1
C 0.939754357210 0.035457818794 -0.053446943695
N 2.332789557650 0.105632020069 -0.222252249022
C 0.196697151823 1.192322939331 0.214150412477
C 0.259792343251 -1.173773313112 -0.247001332546
C -1.191050878766 1.132799961887 0.312696917773
C -1.128153853046 -1.226891184529 -0.147305655516
C -1.864163149868 -0.074795027932 0.128665175415
H 2.804813121311 -0.768703477382 -0.015734765949
H 0.713315611659 2.140186263720 0.354248809433
H 0.825735891946 -2.077115623473 -0.467568555886
H -1.748939861063 2.041002021735 0.527533301631
H -1.636492865113 -2.176686474303 -0.294626160786
H 2.761487108306 0.860330512892 0.303723132257
H -2.946705884419 -0.118859252323 0.206729087873
}
memory 8.333333333333334GB
set_num_threads(1)
psi4_io.set_default_path("/scratch/bdw2292/Psi4-16_Index_0-farH_in17")
set freeze_core True
set PROPERTIES_ORIGIN ["COM"]
set cubeprop_tasks ['esp']
E, wfn = properties('mp2/6-311G**',properties=['dipole'],return_wfn=True)
cubeprop(wfn)
fchk(wfn, "16_Index_0-dma.fchk")
clean()
--------------------------------------------------------------------------

    Molecular point group: c1
  Charge       = 0
  Multiplicity = 1
  Basis Set: 6-311G**
    Blend: 6-311G**
  Basis Set: (6-311G** AUX)
    Blend: CC-PVTZ-JKFIT

    Orbital Energies [Eh]
    ---------------------

    Doubly Occupied:

       1A    -15.558883     2A    -11.275995     3A    -11.234336
       4A    -11.234301     5A    -11.222846     6A    -11.222826
       7A    -11.218796     8A     -1.219636     9A     -1.124207
      10A     -1.010026    11A     -0.983565    12A     -0.829288
      13A     -0.809147    14A     -0.701145    15A     -0.678369
      16A     -0.651730    17A     -0.595758    18A     -0.589622
      19A     -0.579064    20A     -0.531280    21A     -0.504042
      22A     -0.487174    23A     -0.446830    24A     -0.334563
      25A     -0.294507

  @DF-RHF Final Energy:  -285.79857342681146

   => Energetics <=

    Nuclear Repulsion Energy =            271.2266397431959604
    One-Electron Energy =                -923.3745557400256985
    Two-Electron Energy =                 366.3493425700182797
    Total Energy =                       -285.7985734268114584
  Basis Set: (6-311G** AUX)
    Blend: CC-PVTZ-RI
    Molecular point group: c1

    Geometry (in Angstrom), charge = 0, multiplicity = 1:

       Center              X                  Y                   Z               Mass
    ------------   -----------------  -----------------  -----------------  -----------------
         C            0.939754357210     0.035457818794    -0.053446943695    12.000000000000
         N            2.332789557650     0.105632020069    -0.222252249022    14.003074004430
         C            0.196697151823     1.192322939331     0.214150412477    12.000000000000
         C            0.259792343251    -1.173773313112    -0.247001332546    12.000000000000
         C           -1.191050878766     1.132799961887     0.312696917773    12.000000000000
         C           -1.128153853046    -1.226891184529    -0.147305655516    12.000000000000
         C           -1.864163149868    -0.074795027932     0.128665175415    12.000000000000
         H            2.804813121311    -0.768703477382    -0.015734765949     1.007825032230
         H            0.713315611659     2.140186263720     0.354248809433     1.007825032230
         H            0.825735891946    -2.077115623473    -0.467568555886     1.007825032230
         H           -1.748939861063     2.041002021735     0.527533301631     1.007825032230
         H           -1.636492865113    -2.176686474303    -0.294626160786     1.007825032230
         H            2.761487108306     0.860330512892     0.303723132257     1.007825032230
         H           -2.946705884419    -0.118859252323     0.206729087873     1.007825032230

  Basis Set: 6-311G**
    Blend: 6-311G**
  Basis Set: (6-311G** AUX)
    Blend: CC-PVTZ-JKFIT
	 Reference Energy          =    -285.7985734268114584 [Eh]
	 Singles Energy            =      -0.0000000000000000 [Eh]
	 Same-Spin Energy          =      -0.2637314810111880 [Eh]
	 Opposite-Spin Energy      =      -0.7420966866120483 [Eh]
	 Correlation Energy        =      -1.0058281676232363 [Eh]
	 Total Energy              =    -286.8044015944346938 [Eh]

	 ================> DF-SCS-MP2 Energies <==================
	-----------------------------------------------------------
	 SCS Same-Spin Scale       =       0.3333333333333333 [-]
	 SCS Opposite-Spin Scale   =       1.2000000000000000 [-]
	 SCS Same-Spin Energy      =      -0.0879104936703960 [Eh]
	 SCS Opposite-Spin Energy  =      -0.8905160239344579 [Eh]
	 SCS Correlation Energy    =      -0.9784265176048539 [Eh]
	 SCS Total Energy          =    -286.7769999444163318 [Eh]
	-----------------------------------------------------------

  Dipole Moment: [D]
     X:     1.1431      Y:    -0.1785      Z:     1.0662     Total:     1.5734

  Basis Set: 6-311G**
    Blend: 6-311G**
*** Psi4 exiting successfully. Buy a developer a beer!
