                               Psi4 1.3.2 release

  ==> Input File <==

--------------------------------------------------------------------------
molecule {
0 1
C 0.939754357210 0.035457818794 -0.053446943695
N 2.332789557650 0.105632020069 -0.222252249022
C 0.196697151823 1.192322939331 0.214150412477
C 0.259792343251 -1.173773313112 -0.247001332546
C -1.191050878766 1.132799961887 0.312696917773
C -1.128153853046 -1.226891184529 -0.147305655516
C -1.864163149868 -0.074795027932 0.128665175415
H 2.804813121311 -0.768703477382 -0.015734765949
H 0.713315611659 2.140186263720 0.354248809433
H 0.825735891946 -2.077115623473 -0.467568555886
H -1.748939861063 2.041002021735 0.527533301631
H -1.636492865113 -2.176686474303 -0.294626160786
H 2.761487108306 0.860330512892 0.303723132257
H -2.946705884419 -0.118859252323 0.206729087873
}
memory 8.333333333333334GB
set_num_threads(1)
psi4_io.set_default_path("/scratch/bdw2292/Psi4-16_Index_0-farH_in17")
set maxiter 500
set freeze_core True
set PROPERTIES_ORIGIN ["COM"]
set cubeprop_tasks ['esp']
E, wfn = properties('mp2/aug-cc-pVTZ',properties=['dipole'],return_wfn=True)
cubeprop(wfn)
fchk(wfn, "16_Index_0-esp.fchk")
oeprop(wfn,"GRID_ESP","WIBERG_LOWDIN_INDICES","MULLIKEN_CHARGES")
clean()
--------------------------------------------------------------------------

    Molecular point group: c1
  Charge       = 0
  Multiplicity = 1
  Basis Set: AUG-CC-PVTZ
    Blend: AUG-CC-PVTZ
  Basis Set: (AUG-CC-PVTZ AUX)
    Blend: AUG-CC-PVTZ-JKFIT

    Orbital Energies [Eh]
    ---------------------

    Doubly Occupied:

       1A    -15.567065     2A    -11.278067     3A    -11.236539
       4A    -11.236503     5A    -11.225412     6A    -11.225393
       7A    -11.221180     8A     -1.222750     9A     -1.126247
      10A     -1.011711    11A     -0.985456    12A     -0.831188
      13A     -0.811204    14A     -0.703017    15A     -0.681087
      16A     -0.653836    17A     -0.597488    18A     -0.591765
      19A     -0.580607    20A     -0.534551    21A     -0.506078
      22A     -0.488955    23A     -0.450008    24A     -0.336859
      25A     -0.297708

  @DF-RHF Final Energy:  -285.83455465724057

   => Energetics <=

    Nuclear Repulsion Energy =            271.2266397431959604
    One-Electron Energy =                -923.3210389322003948
    Two-Electron Energy =                 366.2598445317638607
    Total Energy =                       -285.8345546572405738
  Basis Set: (AUG-CC-PVTZ AUX)
    Blend: AUG-CC-PVTZ-RI
    Molecular point group: c1

    Geometry (in Angstrom), charge = 0, multiplicity = 1:

       Center              X                  Y                   Z               Mass
    ------------   -----------------  -----------------  -----------------  -----------------
         C            0.939754357210     0.035457818794    -0.053446943695    12.000000000000
         N            2.332789557650     0.105632020069    -0.222252249022    14.003074004430
         C            0.196697151823     1.192322939331     0.214150412477    12.000000000000
         C            0.259792343251    -1.173773313112    -0.247001332546    12.000000000000
         C           -1.191050878766     1.132799961887     0.312696917773    12.000000000000
         C           -1.128153853046    -1.226891184529    -0.147305655516    12.000000000000
         C           -1.864163149868    -0.074795027932     0.128665175415    12.000000000000
         H            2.804813121311    -0.768703477382    -0.015734765949     1.007825032230
         H            0.713315611659     2.140186263720     0.354248809433     1.007825032230
         H            0.825735891946    -2.077115623473    -0.467568555886     1.007825032230
         H           -1.748939861063     2.041002021735     0.527533301631     1.007825032230
         H           -1.636492865113    -2.176686474303    -0.294626160786     1.007825032230
         H            2.761487108306     0.860330512892     0.303723132257     1.007825032230
         H           -2.946705884419    -0.118859252323     0.206729087873     1.007825032230

  Basis Set: AUG-CC-PVTZ
    Blend: AUG-CC-PVTZ
  Basis Set: (AUG-CC-PVTZ AUX)
    Blend: AUG-CC-PVTZ-JKFIT
	 Reference Energy          =    -285.8345546572405738 [Eh]
	 Singles Energy            =      -0.0000000000000000 [Eh]
	 Same-Spin Energy          =      -0.2969317695819235 [Eh]
	 Opposite-Spin Energy      =      -0.8839099862643186 [Eh]
	 Correlation Energy        =      -1.1808417558462421 [Eh]
	 Total Energy              =    -287.0153964130868189 [Eh]

	 ================> DF-SCS-MP2 Energies <==================
	-----------------------------------------------------------
	 SCS Same-Spin Scale       =       0.3333333333333333 [-]
	 SCS Opposite-Spin Scale   =       1.2000000000000000 [-]
	 SCS Same-Spin Energy      =      -0.0989772565273078 [Eh]
	 SCS Opposite-Spin Energy  =      -1.0606919835171822 [Eh]
	 SCS Correlation Energy    =      -1.1596692400444901 [Eh]
	 SCS Total Energy          =    -286.9942238972850532 [Eh]
	-----------------------------------------------------------

  Dipole Moment: [D]
     X:     1.0459      Y:    -0.1650      Z:     0.9842     Total:     1.4456

  Basis Set: AUG-CC-PVTZ
    Blend: AUG-CC-PVTZ

  Mulliken Charges: (a.u.)
   Center  Symbol    Alpha    Beta     Spin     Total
       1     C     2.34300  2.34300  0.00000  1.31399
       2     N     3.87788  3.87788  0.00000 -0.75576
       3     C     3.43360  3.43360  0.00000 -0.86720
       4     C     3.43338  3.43338  0.00000 -0.86677
       5     C     3.19515  3.19515  0.00000 -0.39030
       6     C     3.19506  3.19506  0.00000 -0.39012
       7     C     3.23681  3.23681  0.00000 -0.47362
       8     H     0.45697  0.45697  0.00000  0.08606
       9     H     0.24115  0.24115  0.00000  0.51769
      10     H     0.24137  0.24137  0.00000  0.51727
      11     H     0.32090  0.32090  0.00000  0.35819
      12     H     0.32083  0.32083  0.00000  0.35834
      13     H     0.45697  0.45697  0.00000  0.08607
      14     H     0.24692  0.24692  0.00000  0.50616

   Total alpha = 25.00000, Total beta = 25.00000, Total charge =  0.00000

*** Psi4 exiting successfully. Buy a developer a beer!
