                               Psi4 1.3.2 release

  ==> Input File <==

--------------------------------------------------------------------------
molecule {
0 1
C          0.81870        0.79670        0.73960
N          2.01500        1.48570        1.02620
C          0.76840       -0.39010        0.07510
C         -0.38080        1.37730        1.15150
C         -0.45250       -0.99130       -0.17810
C         -1.58120        0.75890        0.88810
C         -1.67290       -0.44230        0.21710
H          2.04670        2.35900        1.59500
H          1.69470       -0.88110       -0.25600
H         -0.33620        2.31250        1.67300
H         -0.49600       -1.93920       -0.70890
H         -2.48410        1.26410        1.24600
H          2.86020        1.12530        0.67260
H         -2.57650       -0.90090        0.02180
}
memory 100GB
set_num_threads(12)
psi4_io.set_default_path("/scratch/bdw2292/Psi4-farH_in17")
set maxiter 500
set freeze_core True
set PROPERTIES_ORIGIN ["COM"]
set cubeprop_tasks ['esp']
E, wfn = properties('hf/MINIX',properties=['dipole'],return_wfn=True)
cubeprop(wfn)
fchk(wfn, "farH_in17-esp_frag.fchk")
oeprop(wfn,"WIBERG_LOWDIN_INDICES","MULLIKEN_CHARGES")
clean()
--------------------------------------------------------------------------

    Molecular point group: c1

    Geometry (in Angstrom), charge = 0, multiplicity = 1:

       Center              X                  Y                   Z               Mass
    ------------   -----------------  -----------------  -----------------  -----------------
         C            0.830231101429     0.393933327241     0.166125967351    12.000000000000
         N            2.026531101429     1.082933327241     0.452725967351    14.003074004430
         C            0.779931101429    -0.792866672759    -0.498374032649    12.000000000000
         C           -0.369268898571     0.974533327241     0.578025967351    12.000000000000
         C           -0.440968898571    -1.394066672759    -0.751574032649    12.000000000000
         C           -1.569668898571     0.356133327241     0.314625967351    12.000000000000
         C           -1.661368898571    -0.845066672759    -0.356374032649    12.000000000000
         H            2.058231101429     1.956233327241     1.021525967351     1.007825032230
         H            1.706231101429    -1.283866672759    -0.829474032649     1.007825032230
         H           -0.324668898571     1.909733327241     1.099525967351     1.007825032230
         H           -0.484468898571    -2.341966672759    -1.282374032649     1.007825032230
         H           -2.472568898571     0.861333327241     0.672525967351     1.007825032230
         H            2.871731101429     0.722533327241     0.099125967351     1.007825032230
         H           -2.564968898571    -1.303666672759    -0.551674032649     1.007825032230

  Charge       = 0
  Multiplicity = 1
  Basis Set: MINIX
    Blend: MINIX
  Basis Set: (MINIX AUX)
    Blend: DEF2-SVP-JKFIT

    Orbital Energies [Eh]
    ---------------------

    Doubly Occupied:

       1A    -15.388326     2A    -11.235155     3A    -11.171903
       4A    -11.171231     5A    -11.156829     6A    -11.153950
       7A    -11.151907     8A     -1.204061     9A     -1.126313
      10A     -1.014258    11A     -0.992978    12A     -0.827394
      13A     -0.810187    14A     -0.707289    15A     -0.671560
      16A     -0.646179    17A     -0.596113    18A     -0.585054
      19A     -0.574412    20A     -0.547402    21A     -0.506953
      22A     -0.468818    23A     -0.445228    24A     -0.346714
      25A     -0.293059

  @DF-RHF Final Energy:  -283.76193677682107

   => Energetics <=

    Nuclear Repulsion Energy =            273.0918887859436950
    One-Electron Energy =                -924.1211531638170982
    Two-Electron Energy =                 367.2673276010523864
    Total Energy =                       -283.7619367768210736

  Dipole Moment: [D]
     X:     1.2723      Y:     0.7171      Z:     0.3170     Total:     1.4945

  Basis Set: MINIX
    Blend: MINIX

  Mulliken Charges: (a.u.)
   Center  Symbol    Alpha    Beta     Spin     Total
       1     C     2.94352  2.94352  0.00000  0.11295
       2     N     3.75214  3.75214  0.00000 -0.50427
       3     C     3.08887  3.08887  0.00000 -0.17774
       4     C     3.08385  3.08385  0.00000 -0.16769
       5     C     3.05791  3.05791  0.00000 -0.11581
       6     C     3.06102  3.06102  0.00000 -0.12205
       7     C     3.08992  3.08992  0.00000 -0.17985
       8     H     0.37819  0.37819  0.00000  0.24362
       9     H     0.43333  0.43333  0.00000  0.13334
      10     H     0.43551  0.43551  0.00000  0.12899
      11     H     0.43160  0.43160  0.00000  0.13680
      12     H     0.43163  0.43163  0.00000  0.13673
      13     H     0.38089  0.38089  0.00000  0.23821
      14     H     0.43161  0.43161  0.00000  0.13678

   Total alpha = 25.00000, Total beta = 25.00000, Total charge = -0.00000

*** Psi4 exiting successfully. Buy a developer a beer!
