                               Psi4 1.3.2 release

  ==> Input File <==

--------------------------------------------------------------------------
molecule {
0 1
N 1.235489985856 -0.229429200806 0.102647550597
C -0.170674601785 -0.049776360061 0.126445491015
C -2.976051427231 0.251626594427 0.104607538361
C -2.141329692291 1.366455176747 0.041288238716
C -2.400871163543 -1.011787474029 0.201299480752
C -0.756847261882 1.226372187502 0.052431067046
C -1.015480716914 -1.167256923866 0.201350706965
C 2.085705041709 0.723147433111 -0.425377442585
C 1.792113191857 -1.568904842563 0.255915116150
H -2.567051172427 2.365218623112 -0.011318252703
H -3.030046053683 -1.895964841507 0.264753817646
H -0.150802232590 2.124555922998 0.072543276932
H -0.605337270733 -2.167565063156 0.268918129165
O 3.296364898554 0.578224917732 -0.561033398387
H 2.871841218898 -1.476380608250 0.162840647094
H 1.424457452391 -2.235356450440 -0.529784238135
H 1.533062341898 -1.979879930022 1.233717697094
H -4.055794263938 0.369392926699 0.100673517806
H 1.578659732072 1.646949576245 -0.728094923954
}
memory 8.333333333333334GB
set_num_threads(1)
psi4_io.set_default_path("/scratch/bdw2292/Psi4-3_Index_0-farH_in17")
set freeze_core True
set PROPERTIES_ORIGIN ["COM"]
set cubeprop_tasks ['esp']
E, wfn = properties('mp2/6-311G**',properties=['dipole'],return_wfn=True)
cubeprop(wfn)
fchk(wfn, "3_Index_0-dma.fchk")
clean()
--------------------------------------------------------------------------

    Molecular point group: c1
  Charge       = 0
  Multiplicity = 1
  Basis Set: 6-311G**
    Blend: 6-311G**
  Basis Set: (6-311G** AUX)
    Blend: CC-PVTZ-JKFIT

    Orbital Energies [Eh]
    ---------------------

    Doubly Occupied:

       1A    -20.530635     2A    -15.609220     3A    -11.359667
       4A    -11.302782     5A    -11.264006     6A    -11.251228
       7A    -11.250498     8A    -11.246295     9A    -11.243799
      10A    -11.238834    11A     -1.386697    12A     -1.273780
      13A     -1.154401    14A     -1.032962    15A     -1.024784
      16A     -0.968166    17A     -0.869908    18A     -0.834796
      19A     -0.784347    20A     -0.751720    21A     -0.685639
      22A     -0.665733    23A     -0.645741    24A     -0.636743
      25A     -0.616497    26A     -0.605262    27A     -0.590179
      28A     -0.552654    29A     -0.541046    30A     -0.525613
      31A     -0.517518    32A     -0.506898    33A     -0.436712
      34A     -0.430041    35A     -0.351606    36A     -0.314741

  @DF-RHF Final Energy:  -437.59516938145691

   => Energetics <=

    Nuclear Repulsion Energy =            490.6477520459050652
    One-Electron Energy =               -1566.4835496721641448
    Two-Electron Energy =                 638.2406282448022239
    Total Energy =                       -437.5951693814569126
  Basis Set: (6-311G** AUX)
    Blend: CC-PVTZ-RI
    Molecular point group: c1

    Geometry (in Angstrom), charge = 0, multiplicity = 1:

       Center              X                  Y                   Z               Mass
    ------------   -----------------  -----------------  -----------------  -----------------
         N            1.235489985856    -0.229429200806     0.102647550597    14.003074004430
         C           -0.170674601785    -0.049776360061     0.126445491015    12.000000000000
         C           -2.976051427231     0.251626594427     0.104607538361    12.000000000000
         C           -2.141329692291     1.366455176747     0.041288238716    12.000000000000
         C           -2.400871163543    -1.011787474029     0.201299480752    12.000000000000
         C           -0.756847261882     1.226372187502     0.052431067046    12.000000000000
         C           -1.015480716914    -1.167256923866     0.201350706965    12.000000000000
         C            2.085705041709     0.723147433111    -0.425377442585    12.000000000000
         C            1.792113191857    -1.568904842563     0.255915116150    12.000000000000
         H           -2.567051172427     2.365218623112    -0.011318252703     1.007825032230
         H           -3.030046053683    -1.895964841507     0.264753817646     1.007825032230
         H           -0.150802232590     2.124555922998     0.072543276932     1.007825032230
         H           -0.605337270733    -2.167565063156     0.268918129165     1.007825032230
         O            3.296364898554     0.578224917732    -0.561033398387    15.994914619570
         H            2.871841218898    -1.476380608250     0.162840647094     1.007825032230
         H            1.424457452391    -2.235356450440    -0.529784238135     1.007825032230
         H            1.533062341898    -1.979879930022     1.233717697094     1.007825032230
         H           -4.055794263938     0.369392926699     0.100673517806     1.007825032230
         H            1.578659732072     1.646949576245    -0.728094923954     1.007825032230

  Basis Set: 6-311G**
    Blend: 6-311G**
  Basis Set: (6-311G** AUX)
    Blend: CC-PVTZ-JKFIT
	 Reference Energy          =    -437.5951693814569126 [Eh]
	 Singles Energy            =      -0.0000000000000000 [Eh]
	 Same-Spin Energy          =      -0.3904161625852068 [Eh]
	 Opposite-Spin Energy      =      -1.0913963863139307 [Eh]
	 Correlation Energy        =      -1.4818125488991374 [Eh]
	 Total Energy              =    -439.0769819303560553 [Eh]

	 ================> DF-SCS-MP2 Energies <==================
	-----------------------------------------------------------
	 SCS Same-Spin Scale       =       0.3333333333333333 [-]
	 SCS Opposite-Spin Scale   =       1.2000000000000000 [-]
	 SCS Same-Spin Energy      =      -0.1301387208617356 [Eh]
	 SCS Opposite-Spin Energy  =      -1.3096756635767168 [Eh]
	 SCS Correlation Energy    =      -1.4398143844384523 [Eh]
	 SCS Total Energy          =    -439.0349837658953902 [Eh]
	-----------------------------------------------------------

  Dipole Moment: [D]
     X:    -2.7669      Y:    -0.8728      Z:     0.4649     Total:     2.9383

  Basis Set: 6-311G**
    Blend: 6-311G**
*** Psi4 exiting successfully. Buy a developer a beer!
