                               Psi4 1.3.2 release

  ==> Input File <==

--------------------------------------------------------------------------
molecule {
0 1
N 1.235489985856 -0.229429200806 0.102647550597
C -0.170674601785 -0.049776360061 0.126445491015
C -2.976051427231 0.251626594427 0.104607538361
C -2.141329692291 1.366455176747 0.041288238716
C -2.400871163543 -1.011787474029 0.201299480752
C -0.756847261882 1.226372187502 0.052431067046
C -1.015480716914 -1.167256923866 0.201350706965
C 2.085705041709 0.723147433111 -0.425377442585
C 1.792113191857 -1.568904842563 0.255915116150
H -2.567051172427 2.365218623112 -0.011318252703
H -3.030046053683 -1.895964841507 0.264753817646
H -0.150802232590 2.124555922998 0.072543276932
H -0.605337270733 -2.167565063156 0.268918129165
O 3.296364898554 0.578224917732 -0.561033398387
H 2.871841218898 -1.476380608250 0.162840647094
H 1.424457452391 -2.235356450440 -0.529784238135
H 1.533062341898 -1.979879930022 1.233717697094
H -4.055794263938 0.369392926699 0.100673517806
H 1.578659732072 1.646949576245 -0.728094923954
}
memory 8.333333333333334GB
set_num_threads(1)
psi4_io.set_default_path("/scratch/bdw2292/Psi4-3_Index_0-farH_in17")
set maxiter 500
set freeze_core True
set PROPERTIES_ORIGIN ["COM"]
set cubeprop_tasks ['esp']
E, wfn = properties('mp2/aug-cc-pVTZ',properties=['dipole'],return_wfn=True)
cubeprop(wfn)
fchk(wfn, "3_Index_0-esp.fchk")
oeprop(wfn,"GRID_ESP","WIBERG_LOWDIN_INDICES","MULLIKEN_CHARGES")
clean()
--------------------------------------------------------------------------

    Molecular point group: c1
  Charge       = 0
  Multiplicity = 1
  Basis Set: AUG-CC-PVTZ
    Blend: AUG-CC-PVTZ
  Basis Set: (AUG-CC-PVTZ AUX)
    Blend: AUG-CC-PVTZ-JKFIT

    Orbital Energies [Eh]
    ---------------------

    Doubly Occupied:

       1A    -20.538214     2A    -15.614072     3A    -11.360669
       4A    -11.303817     5A    -11.264930     6A    -11.252685
       7A    -11.251993     8A    -11.247817     9A    -11.245409
      10A    -11.240340    11A     -1.388531    12A     -1.275400
      13A     -1.155438    14A     -1.033870    15A     -1.025658
      16A     -0.969154    17A     -0.871076    18A     -0.835823
      19A     -0.785927    20A     -0.752689    21A     -0.686724
      22A     -0.667271    23A     -0.648179    24A     -0.638186
      25A     -0.618014    26A     -0.606301    27A     -0.591526
      28A     -0.553573    29A     -0.543692    30A     -0.526768
      31A     -0.520269    32A     -0.508017    33A     -0.440346
      34A     -0.433259    35A     -0.353411    36A     -0.317404

  @DF-RHF Final Energy:  -437.64849098806638

   => Energetics <=

    Nuclear Repulsion Energy =            490.6477520459050652
    One-Electron Energy =               -1566.4595800467325262
    Two-Electron Energy =                 638.1633370127610760
    Total Energy =                       -437.6484909880664418
  Basis Set: (AUG-CC-PVTZ AUX)
    Blend: AUG-CC-PVTZ-RI
    Molecular point group: c1

    Geometry (in Angstrom), charge = 0, multiplicity = 1:

       Center              X                  Y                   Z               Mass
    ------------   -----------------  -----------------  -----------------  -----------------
         N            1.235489985856    -0.229429200806     0.102647550597    14.003074004430
         C           -0.170674601785    -0.049776360061     0.126445491015    12.000000000000
         C           -2.976051427231     0.251626594427     0.104607538361    12.000000000000
         C           -2.141329692291     1.366455176747     0.041288238716    12.000000000000
         C           -2.400871163543    -1.011787474029     0.201299480752    12.000000000000
         C           -0.756847261882     1.226372187502     0.052431067046    12.000000000000
         C           -1.015480716914    -1.167256923866     0.201350706965    12.000000000000
         C            2.085705041709     0.723147433111    -0.425377442585    12.000000000000
         C            1.792113191857    -1.568904842563     0.255915116150    12.000000000000
         H           -2.567051172427     2.365218623112    -0.011318252703     1.007825032230
         H           -3.030046053683    -1.895964841507     0.264753817646     1.007825032230
         H           -0.150802232590     2.124555922998     0.072543276932     1.007825032230
         H           -0.605337270733    -2.167565063156     0.268918129165     1.007825032230
         O            3.296364898554     0.578224917732    -0.561033398387    15.994914619570
         H            2.871841218898    -1.476380608250     0.162840647094     1.007825032230
         H            1.424457452391    -2.235356450440    -0.529784238135     1.007825032230
         H            1.533062341898    -1.979879930022     1.233717697094     1.007825032230
         H           -4.055794263938     0.369392926699     0.100673517806     1.007825032230
         H            1.578659732072     1.646949576245    -0.728094923954     1.007825032230

  Basis Set: AUG-CC-PVTZ
    Blend: AUG-CC-PVTZ
  Basis Set: (AUG-CC-PVTZ AUX)
    Blend: AUG-CC-PVTZ-JKFIT
	 Reference Energy          =    -437.6484909880663849 [Eh]
	 Singles Energy            =      -0.0000000000000000 [Eh]
	 Same-Spin Energy          =      -0.4418241864927928 [Eh]
	 Opposite-Spin Energy      =      -1.3046166445486003 [Eh]
	 Correlation Energy        =      -1.7464408310413930 [Eh]
	 Total Energy              =    -439.3949318191077964 [Eh]

	 ================> DF-SCS-MP2 Energies <==================
	-----------------------------------------------------------
	 SCS Same-Spin Scale       =       0.3333333333333333 [-]
	 SCS Opposite-Spin Scale   =       1.2000000000000000 [-]
	 SCS Same-Spin Energy      =      -0.1472747288309309 [Eh]
	 SCS Opposite-Spin Energy  =      -1.5655399734583202 [Eh]
	 SCS Correlation Energy    =      -1.7128147022892510 [Eh]
	 SCS Total Energy          =    -439.3613056903556640 [Eh]
	-----------------------------------------------------------

  Dipole Moment: [D]
     X:    -2.9922      Y:    -0.9366      Z:     0.5352     Total:     3.1807

  Basis Set: AUG-CC-PVTZ
    Blend: AUG-CC-PVTZ

  Mulliken Charges: (a.u.)
   Center  Symbol    Alpha    Beta     Spin     Total
       1     N     3.44272  3.44272  0.00000  0.11457
       2     C     2.47184  2.47184  0.00000  1.05632
       3     C     3.24544  3.24544  0.00000 -0.49088
       4     C     3.30425  3.30425  0.00000 -0.60851
       5     C     3.34175  3.34175  0.00000 -0.68350
       6     C     3.27873  3.27873  0.00000 -0.55746
       7     C     3.17840  3.17840  0.00000 -0.35679
       8     C     3.13619  3.13619  0.00000 -0.27238
       9     C     3.55927  3.55927  0.00000 -1.11854
      10     H     0.32928  0.32928  0.00000  0.34144
      11     H     0.31027  0.31027  0.00000  0.37945
      12     H     0.28140  0.28140  0.00000  0.43719
      13     H     0.32365  0.32365  0.00000  0.35270
      14     O     4.37111  4.37111  0.00000 -0.74222
      15     H     0.33052  0.33052  0.00000  0.33897
      16     H     0.32790  0.32790  0.00000  0.34420
      17     H     0.32722  0.32722  0.00000  0.34555
      18     H     0.24190  0.24190  0.00000  0.51619
      19     H     0.19814  0.19814  0.00000  0.60371

   Total alpha = 36.00000, Total beta = 36.00000, Total charge =  0.00000

*** Psi4 exiting successfully. Buy a developer a beer!
