                               Psi4 1.3.2 release

  ==> Input File <==

--------------------------------------------------------------------------
molecule {
0 1
 N    1.456400   -0.070400   -0.238500
 C    0.057400    0.116600   -0.176000
 C   -2.741300    0.382100   -0.028400
 C   -1.958100    1.494900   -0.203100
 C   -2.163700   -0.855300    0.073800
 C   -0.591000    1.323400   -0.270700
 C   -0.802200   -0.980700    0.001700
 C    2.370100    0.967700   -0.482500
 C    1.986700   -1.407100   -0.047700
 H   -2.399300    2.504800   -0.288900
 H   -2.832300   -1.706200    0.212000
 H    0.003800    2.222200   -0.409100
 H   -0.359600   -1.953100    0.081900
 O    3.611200    0.785000   -0.520900
 H    3.075200   -1.455200   -0.157000
 H    1.529600   -2.124100   -0.777000
 H    1.642900   -1.728200    0.967900
 H   -3.831400    0.513700    0.027400
 H    1.945500    1.969900   -0.643500
}
set {
  geom_maxiter 400
  g_convergence GAU
  dynamic_level 1
}
set optking {
  frozen_dihedral = ("
    9 1 2 6
, 2 1 9 15
  ")
}
memory 8.333333333333334GB
set_num_threads(1)
psi4_io.set_default_path("/scratch/bdw2292/Psi4-3_Index_0-farH_in17")
for _ in range(1):
  try:
    set opt_coordinates both
    optimize('mp2/6-31G*')
    break
  except OptimizationConvergenceError:
    break
  else:
    try:
      set opt_coordinates cartesian
      optimize('mp2/6-31G*')
      break
    except OptimizationConvergenceError:
      pass
clean()
--------------------------------------------------------------------------

    Molecular point group: c1
  Charge       = 0
  Multiplicity = 1
  Basis Set: 6-31G*
    Blend: 6-31G*
  Basis Set: (6-31G* AUX)
    Blend: CC-PVDZ-JKFIT
  @DF-RHF Final Energy:  -437.47906811593896
    Total Energy =                       -437.4790681159389578
  Basis Set: (6-31G* AUX)
    Blend: CC-PVDZ-RI
    Molecular point group: c1
  Basis Set: 6-31G*
    Blend: 6-31G*
  Basis Set: (6-31G* AUX)
    Blend: CC-PVDZ-JKFIT
  Basis Set: (6-31G* AUX)
    Blend: CC-PVDZ-JKFIT
	 Reference Energy          =    -437.4790681159389578 [Eh]
	 Singles Energy            =      -0.0000000000000000 [Eh]
	 Same-Spin Energy          =      -0.3753512052265039 [Eh]
	 Opposite-Spin Energy      =      -1.0299379246175151 [Eh]
	 Correlation Energy        =      -1.4052891298440189 [Eh]
	 Total Energy              =    -438.8843572457829509 [Eh]
	 SCS Total Energy          =    -438.8401106938887892 [Eh]
  @DF-RHF Final Energy:  -437.49242311549017
    Total Energy =                       -437.4924231154901690
  @DF-RHF Final Energy:  -437.49338484365450
    Total Energy =                       -437.4933848436544395
  @DF-RHF Final Energy:  -437.49406915537833
    Total Energy =                       -437.4940691553782699
  @DF-RHF Final Energy:  -437.49417872781021
    Total Energy =                       -437.4941787278102083
  @DF-RHF Final Energy:  -437.49397290119578
    Total Energy =                       -437.4939729011957752
  @DF-RHF Final Energy:  -437.49373274653959
    Total Energy =                       -437.4937327465396493
  @DF-RHF Final Energy:  -437.49404999200027
    Total Energy =                       -437.4940499920002139
  @DF-RHF Final Energy:  -437.49407570191181
    Total Energy =                       -437.4940757019118109
  @DF-RHF Final Energy:  -437.49401342177447
    Total Energy =                       -437.4940134217745253
  Charge       = 0
  Multiplicity = 1
  Basis Set: 6-31G*
    Blend: 6-31G*
  Basis Set: (6-31G* AUX)
    Blend: CC-PVDZ-JKFIT

    Orbital Energies [Eh]
    ---------------------

    Doubly Occupied:

       1A    -20.542622     2A    -15.614831     3A    -11.361323
       4A    -11.300833     5A    -11.263724     6A    -11.250531
       7A    -11.249811     8A    -11.246010     9A    -11.243565
      10A    -11.238708    11A     -1.384281    12A     -1.271164
      13A     -1.150309    14A     -1.029322    15A     -1.021164
      16A     -0.966251    17A     -0.866594    18A     -0.831229
      19A     -0.781917    20A     -0.748296    21A     -0.682474
      22A     -0.662091    23A     -0.643170    24A     -0.633334
      25A     -0.612448    26A     -0.602009    27A     -0.586857
      28A     -0.550906    29A     -0.538829    30A     -0.522208
      31A     -0.513732    32A     -0.503597    33A     -0.433022
      34A     -0.426333    35A     -0.347284    36A     -0.310530

  @DF-RHF Final Energy:  -437.49403419066084

   => Energetics <=

    Nuclear Repulsion Energy =            490.6477520458850563
    One-Electron Energy =               -1566.4209516485243512
    Two-Electron Energy =                 638.2791654119785107
    Total Energy =                       -437.4940341906608410

  Dipole Moment: [D]
     X:    -3.4933      Y:    -0.7556      Z:     0.4597     Total:     3.6036

  Basis Set: (6-31G* AUX)
    Blend: CC-PVDZ-RI
    Molecular point group: c1
  Basis Set: 6-31G*
    Blend: 6-31G*
  Basis Set: (6-31G* AUX)
    Blend: CC-PVDZ-JKFIT
  Basis Set: (6-31G* AUX)
    Blend: CC-PVDZ-JKFIT
	 Reference Energy          =    -437.4940341906608410 [Eh]
	 Singles Energy            =      -0.0000000000000000 [Eh]
	 Same-Spin Energy          =      -0.3744020667301147 [Eh]
	 Opposite-Spin Energy      =      -1.0280128600739868 [Eh]
	 Correlation Energy        =      -1.4024149268041015 [Eh]
	 Total Energy              =    -438.8964491174649538 [Eh]

	 ================> DF-SCS-MP2 Energies <==================
	-----------------------------------------------------------
	 SCS Same-Spin Scale       =       0.3333333333333333 [-]
	 SCS Opposite-Spin Scale   =       1.2000000000000000 [-]
	 SCS Same-Spin Energy      =      -0.1248006889100382 [Eh]
	 SCS Opposite-Spin Energy  =      -1.2336154320887842 [Eh]
	 SCS Correlation Energy    =      -1.3584161209988224 [Eh]
	 SCS Total Energy          =    -438.8524503116596520 [Eh]
	-----------------------------------------------------------

  -Total Gradient:
     Atom            X                  Y                   Z
    ------   -----------------  -----------------  -----------------
       1        0.000114681946     0.000729410954     0.004855133873
       2        0.000130144688     0.000017262228     0.003041963247
       3       -0.000034378472     0.000023493848    -0.000025722280
       4        0.000001692058    -0.000002061418     0.000032567164
       5        0.000046846186    -0.000012920977     0.000022424473
       6       -0.000128882075    -0.000249509034    -0.003981087372
       7       -0.000023269451    -0.000009025631    -0.000025607711
       8        0.000034900650    -0.000013438093    -0.000013334276
       9       -0.000033869929    -0.000293250642    -0.002618021438
      10        0.000003208906    -0.000001576739    -0.000010624704
      11       -0.000008418863     0.000001554866    -0.000000847430
      12        0.000004226639     0.000000928196     0.000022392262
      13        0.000009366706    -0.000006490049     0.000006319313
      14       -0.000017031748     0.000011312718     0.000006018181
      15       -0.000100079821    -0.000192802331    -0.001312585026
      16       -0.000010753668    -0.000003427949     0.000004903454
      17        0.000006763630     0.000009229591    -0.000011788495
      18        0.000002293680    -0.000006447221     0.000003666013
      19        0.000002558934    -0.000002242316     0.000004230751

  **** Optimization is complete! (in 11 steps) ****
    Final optimized geometry and variables:
    Molecular point group: c1

    Geometry (in Angstrom), charge = 0, multiplicity = 1:

    N            1.235489985856    -0.229429200806     0.102647550597
    C           -0.170674601785    -0.049776360061     0.126445491015
    C           -2.976051427231     0.251626594427     0.104607538361
    C           -2.141329692291     1.366455176747     0.041288238716
    C           -2.400871163543    -1.011787474029     0.201299480752
    C           -0.756847261882     1.226372187502     0.052431067046
    C           -1.015480716914    -1.167256923866     0.201350706965
    C            2.085705041709     0.723147433111    -0.425377442585
    C            1.792113191857    -1.568904842563     0.255915116150
    H           -2.567051172427     2.365218623112    -0.011318252703
    H           -3.030046053683    -1.895964841507     0.264753817646
    H           -0.150802232590     2.124555922998     0.072543276932
    H           -0.605337270733    -2.167565063156     0.268918129165
    O            3.296364898554     0.578224917732    -0.561033398387
    H            2.871841218898    -1.476380608250     0.162840647094
    H            1.424457452391    -2.235356450440    -0.529784238135
    H            1.533062341898    -1.979879930022     1.233717697094
    H           -4.055794263938     0.369392926699     0.100673517806
    H            1.578659732072     1.646949576245    -0.728094923954

*** Psi4 exiting successfully. Buy a developer a beer!
