                               Psi4 1.3.2 release

  ==> Input File <==

--------------------------------------------------------------------------
molecule {
0 1
N         -2.88880       -1.10540       -0.07100
C         -1.67290       -0.44230        0.21710
C          0.81870        0.79670        0.73960
C          0.76840       -0.39010        0.07510
C         -0.38080        1.37730        1.15150
C         -0.45250       -0.99130       -0.17810
C         -1.58120        0.75890        0.88810
C         -4.15550       -0.51950       -0.13450
C         -2.79090       -2.55700       -0.33120
H          1.69470       -0.88110       -0.25600
H         -0.33620        2.31250        1.67300
H         -0.49600       -1.93920       -0.70890
H         -2.48410        1.26410        1.24600
O         -4.29600        0.70990        0.04690
H         -2.17240       -3.04390        0.42450
H         -2.33400       -2.65370       -1.32860
H         -3.80720       -3.03690       -0.27370
H          1.72230        1.25580        0.93390
H         -4.98150       -1.10560       -0.33260
}
memory 100GB
set_num_threads(12)
psi4_io.set_default_path("/scratch/bdw2292/Psi4-farH_in17")
set maxiter 500
set freeze_core True
set PROPERTIES_ORIGIN ["COM"]
set cubeprop_tasks ['esp']
E, wfn = properties('hf/MINIX',properties=['dipole'],return_wfn=True)
cubeprop(wfn)
fchk(wfn, "farH_in17-esp_frag.fchk")
oeprop(wfn,"WIBERG_LOWDIN_INDICES","MULLIKEN_CHARGES")
clean()
--------------------------------------------------------------------------

    Molecular point group: c1

    Geometry (in Angstrom), charge = 0, multiplicity = 1:

       Center              X                  Y                   Z               Mass
    ------------   -----------------  -----------------  -----------------  -----------------
         N           -1.142838282074    -0.841673926404    -0.295149541173    14.003074004430
         C            0.073061717926    -0.178573926404    -0.007049541173    12.000000000000
         C            2.564661717926     1.060426073596     0.515450458827    12.000000000000
         C            2.514361717926    -0.126373926404    -0.149049541173    12.000000000000
         C            1.365161717926     1.641026073596     0.927350458827    12.000000000000
         C            1.293461717926    -0.727573926404    -0.402249541173    12.000000000000
         C            0.164761717926     1.022626073596     0.663950458827    12.000000000000
         C           -2.409538282074    -0.255773926404    -0.358649541173    12.000000000000
         C           -1.044938282074    -2.293273926404    -0.555349541173    12.000000000000
         H            3.440661717926    -0.617373926404    -0.480149541173     1.007825032230
         H            1.409761717926     2.576226073596     1.448850458827     1.007825032230
         H            1.249961717926    -1.675473926404    -0.933049541173     1.007825032230
         H           -0.738138282074     1.527826073596     1.021850458827     1.007825032230
         O           -2.550038282074     0.973626073596    -0.177249541173    15.994914619570
         H           -0.426438282074    -2.780173926404     0.200350458827     1.007825032230
         H           -0.588038282074    -2.389973926404    -1.552749541173     1.007825032230
         H           -2.061238282074    -2.773173926404    -0.497849541173     1.007825032230
         H            3.468261717926     1.519526073596     0.709750458827     1.007825032230
         H           -3.235538282074    -0.841873926404    -0.556749541173     1.007825032230

  Charge       = 0
  Multiplicity = 1
  Basis Set: MINIX
    Blend: MINIX
  Basis Set: (MINIX AUX)
    Blend: DEF2-SVP-JKFIT

    Orbital Energies [Eh]
    ---------------------

    Doubly Occupied:

       1A    -20.308057     2A    -15.465409     3A    -11.323965
       4A    -11.241199     5A    -11.220014     6A    -11.180241
       7A    -11.175736     8A    -11.171259     9A    -11.170627
      10A    -11.169090    11A     -1.372947    12A     -1.254203
      13A     -1.161117    14A     -1.034228    15A     -1.022216
      16A     -0.956557    17A     -0.881271    18A     -0.830525
      19A     -0.793353    20A     -0.716167    21A     -0.695762
      22A     -0.660772    23A     -0.649256    24A     -0.624234
      25A     -0.609675    26A     -0.584893    27A     -0.565948
      28A     -0.549725    29A     -0.547152    30A     -0.520536
      31A     -0.510122    32A     -0.482989    33A     -0.415659
      34A     -0.409207    35A     -0.351913    36A     -0.310484

  @DF-RHF Final Energy:  -434.46269322141734

   => Energetics <=

    Nuclear Repulsion Energy =            496.6767391773316263
    One-Electron Energy =               -1574.4058496776594893
    Two-Electron Energy =                 643.2664172789104668
    Total Energy =                       -434.4626932214173394

  Dipole Moment: [D]
     X:     0.5243      Y:    -3.5049      Z:    -0.3493     Total:     3.5611

  Basis Set: MINIX
    Blend: MINIX

  Mulliken Charges: (a.u.)
   Center  Symbol    Alpha    Beta     Spin     Total
       1     N     3.65828  3.65828  0.00000 -0.31656
       2     C     2.94985  2.94985  0.00000  0.10031
       3     C     3.07862  3.07862  0.00000 -0.15723
       4     C     3.06850  3.06850  0.00000 -0.13701
       5     C     3.06638  3.06638  0.00000 -0.13276
       6     C     3.07302  3.07302  0.00000 -0.14603
       7     C     3.07036  3.07036  0.00000 -0.14072
       8     C     2.86690  2.86690  0.00000  0.26621
       9     C     3.11848  3.11848  0.00000 -0.23696
      10     H     0.42860  0.42860  0.00000  0.14281
      11     H     0.42816  0.42816  0.00000  0.14369
      12     H     0.43402  0.43402  0.00000  0.13196
      13     H     0.41567  0.41567  0.00000  0.16866
      14     O     4.19942  4.19942  0.00000 -0.39885
      15     H     0.42821  0.42821  0.00000  0.14357
      16     H     0.43093  0.43093  0.00000  0.13813
      17     H     0.43007  0.43007  0.00000  0.13986
      18     H     0.43039  0.43039  0.00000  0.13922
      19     H     0.42415  0.42415  0.00000  0.15170

   Total alpha = 36.00000, Total beta = 36.00000, Total charge = -0.00000

*** Psi4 exiting successfully. Buy a developer a beer!
