                               Psi4 1.3.2 release

  ==> Input File <==

--------------------------------------------------------------------------
molecule {
0 1
C          6.39930       -0.06410        0.46320
C          5.45820        0.01300        1.45740
N          4.75960       -0.28370        3.57990
C          4.10300        0.54460        1.49040
C          3.68450        0.32970        2.90270
C          5.83990       -0.47630        2.69740
C          7.66120       -0.60180        0.67160
C          7.09490       -1.01690        2.92680
C          8.00280       -1.07540        1.90020
H          6.14600        0.33410       -0.49780
H          4.76100       -0.55540        4.58480
C          3.32760        1.04510        0.55700
O          2.58000        0.63820        3.39650
H          7.34390       -1.39140        3.92730
H          9.00180       -1.50930        2.09970
H          8.34000       -0.64240       -0.10470
H          3.68720        1.16550       -0.40280
H          2.35840        1.31820        0.78290
}
memory 100GB
set_num_threads(12)
psi4_io.set_default_path("/scratch/bdw2292/Psi4-farH_in17")
set maxiter 500
set freeze_core True
set PROPERTIES_ORIGIN ["COM"]
set cubeprop_tasks ['esp']
E, wfn = properties('hf/MINIX',properties=['dipole'],return_wfn=True)
cubeprop(wfn)
fchk(wfn, "farH_in17-esp_frag.fchk")
oeprop(wfn,"WIBERG_LOWDIN_INDICES","MULLIKEN_CHARGES")
clean()
--------------------------------------------------------------------------

    Molecular point group: c1

    Geometry (in Angstrom), charge = 0, multiplicity = 1:

       Center              X                  Y                   Z               Mass
    ------------   -----------------  -----------------  -----------------  -----------------
         C            1.099595179577     0.009532785892    -1.575557633259    12.000000000000
         C            0.158495179577     0.086632785892    -0.581357633259    12.000000000000
         N           -0.540104820423    -0.210067214108     1.541142366741    14.003074004430
         C           -1.196704820423     0.618232785892    -0.548357633259    12.000000000000
         C           -1.615204820423     0.403332785892     0.863942366741    12.000000000000
         C            0.540195179577    -0.402667214108     0.658642366741    12.000000000000
         C            2.361495179577    -0.528167214108    -1.367157633259    12.000000000000
         C            1.795195179577    -0.943267214108     0.888042366741    12.000000000000
         C            2.703095179577    -1.001767214108    -0.138557633259    12.000000000000
         H            0.846295179577     0.407732785892    -2.536557633259     1.007825032230
         H           -0.538704820423    -0.481767214108     2.546042366741     1.007825032230
         C           -1.972104820423     1.118732785892    -1.481757633259    12.000000000000
         O           -2.719704820423     0.711832785892     1.357742366741    15.994914619570
         H            2.044195179577    -1.317767214108     1.888542366741     1.007825032230
         H            3.702095179577    -1.435667214108     0.060942366741     1.007825032230
         H            3.040295179577    -0.568767214108    -2.143457633259     1.007825032230
         H           -1.612504820423     1.239132785892    -2.441557633259     1.007825032230
         H           -2.941304820423     1.391832785892    -1.255857633259     1.007825032230

  Charge       = 0
  Multiplicity = 1
  Basis Set: MINIX
    Blend: MINIX
  Basis Set: (MINIX AUX)
    Blend: DEF2-SVP-JKFIT

    Orbital Energies [Eh]
    ---------------------

    Doubly Occupied:

       1A    -20.312911     2A    -15.457870     3A    -11.329401
       4A    -11.251747     5A    -11.217826     6A    -11.202562
       7A    -11.198653     8A    -11.198402     9A    -11.196407
      10A    -11.184858    11A    -11.179776    12A     -1.374971
      13A     -1.274826    14A     -1.167607    15A     -1.116292
      16A     -1.033465    17A     -1.020343    18A     -0.930003
      19A     -0.847001    20A     -0.816788    21A     -0.770352
      22A     -0.726658    23A     -0.698429    24A     -0.657272
      25A     -0.640300    26A     -0.627822    27A     -0.620314
      28A     -0.608115    29A     -0.593855    30A     -0.546671
      31A     -0.533240    32A     -0.531517    33A     -0.497888
      34A     -0.462887    35A     -0.428846    36A     -0.408297
      37A     -0.352026    38A     -0.308889

  @DF-RHF Final Energy:  -470.91001559494867

   => Energetics <=

    Nuclear Repulsion Energy =            554.8186027197472185
    One-Electron Energy =               -1738.8070391390522218
    Two-Electron Energy =                 713.0784208243562716
    Total Energy =                       -470.9100155949486179

  Dipole Moment: [D]
     X:     2.5909      Y:    -0.8690      Z:    -0.6910     Total:     2.8188

  Basis Set: MINIX
    Blend: MINIX

  Mulliken Charges: (a.u.)
   Center  Symbol    Alpha    Beta     Spin     Total
       1     C     3.05567  3.05567  0.00000 -0.11135
       2     C     3.02434  3.02434  0.00000 -0.04868
       3     N     3.70214  3.70214  0.00000 -0.40429
       4     C     3.02164  3.02164  0.00000 -0.04328
       5     C     2.80477  2.80477  0.00000  0.39045
       6     C     2.94048  2.94048  0.00000  0.11903
       7     C     3.08449  3.08449  0.00000 -0.16898
       8     C     3.08172  3.08172  0.00000 -0.16344
       9     C     3.05989  3.05989  0.00000 -0.11978
      10     H     0.42832  0.42832  0.00000  0.14337
      11     H     0.35917  0.35917  0.00000  0.28166
      12     C     3.11516  3.11516  0.00000 -0.23032
      13     O     4.19990  4.19990  0.00000 -0.39980
      14     H     0.42882  0.42882  0.00000  0.14236
      15     H     0.42491  0.42491  0.00000  0.15019
      16     H     0.42868  0.42868  0.00000  0.14263
      17     H     0.42381  0.42381  0.00000  0.15238
      18     H     0.41608  0.41608  0.00000  0.16784

   Total alpha = 38.00000, Total beta = 38.00000, Total charge =  0.00000

*** Psi4 exiting successfully. Buy a developer a beer!
