                               Psi4 1.3.2 release

  ==> Input File <==

--------------------------------------------------------------------------
molecule {
0 1
N -1.881142051244 -0.436749712957 -0.030404581389
C -2.812495288730 0.629759805862 0.258829277794
C -0.504889730087 -0.216983088539 -0.024321436538
C 0.062302616874 1.034461151525 0.258522076727
C 0.352568095897 -1.290845550659 -0.321229782164
C 1.446861431582 1.204739537014 0.211761168354
C 1.730301148855 -1.115583948489 -0.345188123330
C 2.290263635550 0.137381496427 -0.083819437201
H -2.160381484384 -1.352509211933 0.297784409576
H -0.567590824274 1.878378810742 0.521028344503
H -0.079817012662 -2.263523442248 -0.549512582114
H 1.865864899966 2.184404030814 0.429710527174
H 2.371248040314 -1.962635175823 -0.578101137977
H -2.582998629057 1.490022413705 -0.373568666438
H -3.821850449607 0.288272314745 0.021645436874
H -2.794484244273 0.970121329709 1.305880837687
H 3.367289568063 0.276347620175 -0.111294477097
}
memory 8.333333333333334GB
set_num_threads(1)
psi4_io.set_default_path("/scratch/bdw2292/Psi4-1_Index_0-farH_in17")
set freeze_core True
set PROPERTIES_ORIGIN ["COM"]
set cubeprop_tasks ['esp']
E, wfn = properties('mp2/6-311G**',properties=['dipole'],return_wfn=True)
cubeprop(wfn)
fchk(wfn, "1_Index_0-dma.fchk")
clean()
--------------------------------------------------------------------------

    Molecular point group: c1
  Charge       = 0
  Multiplicity = 1
  Basis Set: 6-311G**
    Blend: 6-311G**
  Basis Set: (6-311G** AUX)
    Blend: CC-PVTZ-JKFIT

    Orbital Energies [Eh]
    ---------------------

    Doubly Occupied:

       1A    -15.557110     2A    -11.273891     3A    -11.255669
       4A    -11.231582     5A    -11.231328     6A    -11.219745
       7A    -11.219105     8A    -11.215767     9A     -1.236031
      10A     -1.127473    11A     -1.008686    12A     -0.998944
      13A     -0.915973    14A     -0.823145    15A     -0.797460
      16A     -0.709860    17A     -0.668521    18A     -0.636915
      19A     -0.613246    20A     -0.605635    21A     -0.578068
      22A     -0.570423    23A     -0.537574    24A     -0.506258
      25A     -0.500126    26A     -0.482712    27A     -0.418274
      28A     -0.331826    29A     -0.285371

  @DF-RHF Final Energy:  -324.83096500623174

   => Energetics <=

    Nuclear Repulsion Energy =            344.0363234695516894
    One-Electron Energy =               -1120.6211402028311568
    Two-Electron Energy =                 451.7538517270477314
    Total Energy =                       -324.8309650062317360
  Basis Set: (6-311G** AUX)
    Blend: CC-PVTZ-RI
    Molecular point group: c1

    Geometry (in Angstrom), charge = 0, multiplicity = 1:

       Center              X                  Y                   Z               Mass
    ------------   -----------------  -----------------  -----------------  -----------------
         N           -1.881142051244    -0.436749712957    -0.030404581389    14.003074004430
         C           -2.812495288730     0.629759805862     0.258829277794    12.000000000000
         C           -0.504889730087    -0.216983088539    -0.024321436538    12.000000000000
         C            0.062302616874     1.034461151525     0.258522076727    12.000000000000
         C            0.352568095897    -1.290845550659    -0.321229782164    12.000000000000
         C            1.446861431582     1.204739537014     0.211761168354    12.000000000000
         C            1.730301148855    -1.115583948489    -0.345188123330    12.000000000000
         C            2.290263635550     0.137381496427    -0.083819437201    12.000000000000
         H           -2.160381484384    -1.352509211933     0.297784409576     1.007825032230
         H           -0.567590824274     1.878378810742     0.521028344503     1.007825032230
         H           -0.079817012662    -2.263523442248    -0.549512582114     1.007825032230
         H            1.865864899966     2.184404030814     0.429710527174     1.007825032230
         H            2.371248040314    -1.962635175823    -0.578101137977     1.007825032230
         H           -2.582998629057     1.490022413705    -0.373568666438     1.007825032230
         H           -3.821850449607     0.288272314745     0.021645436874     1.007825032230
         H           -2.794484244273     0.970121329709     1.305880837687     1.007825032230
         H            3.367289568063     0.276347620175    -0.111294477097     1.007825032230

  Basis Set: 6-311G**
    Blend: 6-311G**
  Basis Set: (6-311G** AUX)
    Blend: CC-PVTZ-JKFIT
	 Reference Energy          =    -324.8309650062317360 [Eh]
	 Singles Energy            =      -0.0000000000000000 [Eh]
	 Same-Spin Energy          =      -0.2984903131709019 [Eh]
	 Opposite-Spin Energy      =      -0.8577703428250956 [Eh]
	 Correlation Energy        =      -1.1562606559959976 [Eh]
	 Total Energy              =    -325.9872256622277291 [Eh]

	 ================> DF-SCS-MP2 Energies <==================
	-----------------------------------------------------------
	 SCS Same-Spin Scale       =       0.3333333333333333 [-]
	 SCS Opposite-Spin Scale   =       1.2000000000000000 [-]
	 SCS Same-Spin Energy      =      -0.0994967710569673 [Eh]
	 SCS Opposite-Spin Energy  =      -1.0293244113901145 [Eh]
	 SCS Correlation Energy    =      -1.1288211824470817 [Eh]
	 SCS Total Energy          =    -325.9597861886788337 [Eh]
	-----------------------------------------------------------

  Dipole Moment: [D]
     X:    -1.4696      Y:    -0.2682      Z:     0.6664     Total:     1.6358

  Basis Set: 6-311G**
    Blend: 6-311G**
*** Psi4 exiting successfully. Buy a developer a beer!
