                               Psi4 1.3.2 release

  ==> Input File <==

--------------------------------------------------------------------------
molecule {
0 1
 N   -1.659800   -0.597700   -0.295700
 C   -2.615900    0.459200   -0.031900
 C   -0.262700   -0.327000   -0.309600
 C    0.241000    0.933700   -0.076400
 C    0.660400   -1.322700   -0.559200
 C    1.617200    1.166600   -0.096900
 C    2.018600   -1.103100   -0.581600
 C    2.514000    0.151200   -0.349300
 H   -1.973900   -1.576300   -0.480500
 H   -0.406700    1.764400    0.125800
 H    0.252900   -2.308900   -0.741000
 H    2.037300    2.151300    0.083900
 H    2.709900   -1.910700   -0.781300
 H   -2.459300    1.347200   -0.679400
 H   -3.641100    0.094200   -0.249900
 H   -2.632300    0.739700    1.057100
 H    3.600400    0.339000   -0.364800
}
set {
  geom_maxiter 400
  g_convergence GAU
  dynamic_level 1
}
set optking {
  frozen_dihedral = ("
    3 1 2 14
, 2 1 3 4
  ")
}
memory 8.333333333333334GB
set_num_threads(1)
psi4_io.set_default_path("/scratch/bdw2292/Psi4-1_Index_0-farH_in17")
for _ in range(1):
  try:
    set opt_coordinates both
    optimize('mp2/6-31G*')
    break
  except OptimizationConvergenceError:
    break
  else:
    try:
      set opt_coordinates cartesian
      optimize('mp2/6-31G*')
      break
    except OptimizationConvergenceError:
      pass
clean()
--------------------------------------------------------------------------

    Molecular point group: c1
  Charge       = 0
  Multiplicity = 1
  Basis Set: 6-31G*
    Blend: 6-31G*
  Basis Set: (6-31G* AUX)
    Blend: CC-PVDZ-JKFIT
  @DF-RHF Final Energy:  -324.74436673320594
    Total Energy =                       -324.7443667332059363
  Basis Set: (6-31G* AUX)
    Blend: CC-PVDZ-RI
    Molecular point group: c1
  Basis Set: 6-31G*
    Blend: 6-31G*
  Basis Set: (6-31G* AUX)
    Blend: CC-PVDZ-JKFIT
  Basis Set: (6-31G* AUX)
    Blend: CC-PVDZ-JKFIT
	 Reference Energy          =    -324.7443667332059363 [Eh]
	 Singles Energy            =      -0.0000000000000000 [Eh]
	 Same-Spin Energy          =      -0.2853010978247310 [Eh]
	 Opposite-Spin Energy      =      -0.8044143759410455 [Eh]
	 Correlation Energy        =      -1.0897154737657764 [Eh]
	 Total Energy              =    -325.8340822069716864 [Eh]
	 SCS Total Energy          =    -325.8047643502767414 [Eh]
  @DF-RHF Final Energy:  -324.75338149864490
    Total Energy =                       -324.7533814986448988
  @DF-RHF Final Energy:  -324.75396557502518
    Total Energy =                       -324.7539655750251768
  @DF-RHF Final Energy:  -324.75400731451964
    Total Energy =                       -324.7540073145196402
  @DF-RHF Final Energy:  -324.75399151904219
    Total Energy =                       -324.7539915190421880
  @DF-RHF Final Energy:  -324.75400731508466
    Total Energy =                       -324.7540073150846638
  @DF-RHF Final Energy:  -324.75401245625551
    Total Energy =                       -324.7540124562555093
  @DF-RHF Final Energy:  -324.75290832510194
    Total Energy =                       -324.7529083251019415
  @DF-RHF Final Energy:  -324.75370735189529
    Total Energy =                       -324.7537073518952866
  @DF-RHF Final Energy:  -324.75207386914428
    Total Energy =                       -324.7520738691442830
  @DF-RHF Final Energy:  -324.75348264273435
    Total Energy =                       -324.7534826427343546
  @DF-RHF Final Energy:  -324.75407340906884
    Total Energy =                       -324.7540734090688375
  @DF-RHF Final Energy:  -324.74757727909315
    Total Energy =                       -324.7475772790931501
  @DF-RHF Final Energy:  -324.75195118171303
    Total Energy =                       -324.7519511817130251
  @DF-RHF Final Energy:  -324.75407340893832
    Total Energy =                       -324.7540734089383250
  @DF-RHF Final Energy:  -324.75403706920463
    Total Energy =                       -324.7540370692046281
  @DF-RHF Final Energy:  -324.75399104994290
    Total Energy =                       -324.7539910499428970
  @DF-RHF Final Energy:  -324.75397065377507
    Total Energy =                       -324.7539706537750703
  @DF-RHF Final Energy:  -324.75401229712185
    Total Energy =                       -324.7540122971218466
  @DF-RHF Final Energy:  -324.75409663437620
    Total Energy =                       -324.7540966343761966
  @DF-RHF Final Energy:  -324.75414318546513
    Total Energy =                       -324.7541431854651250
  @DF-RHF Final Energy:  -324.75428113138605
    Total Energy =                       -324.7542811313860511
  @DF-RHF Final Energy:  -324.75427723427464
    Total Energy =                       -324.7542772342746389
  @DF-RHF Final Energy:  -324.75422021548684
    Total Energy =                       -324.7542202154868392
  @DF-RHF Final Energy:  -324.75421027778867
    Total Energy =                       -324.7542102777886726
  @DF-RHF Final Energy:  -324.75425895974303
    Total Energy =                       -324.7542589597430265
  @DF-RHF Final Energy:  -324.75429681997855
    Total Energy =                       -324.7542968199785491
  @DF-RHF Final Energy:  -324.75432584433867
    Total Energy =                       -324.7543258443386662
  @DF-RHF Final Energy:  -324.75433297333632
    Total Energy =                       -324.7543329733363180
  @DF-RHF Final Energy:  -324.75436667224625
    Total Energy =                       -324.7543666722462490
  @DF-RHF Final Energy:  -324.75429357285100
    Total Energy =                       -324.7542935728509974
  @DF-RHF Final Energy:  -324.75439916332783
    Total Energy =                       -324.7543991633278324
  @DF-RHF Final Energy:  -324.75430258198560
    Total Energy =                       -324.7543025819855984
  @DF-RHF Final Energy:  -324.75433284705178
    Total Energy =                       -324.7543328470517849
  @DF-RHF Final Energy:  -324.75433223690845
    Total Energy =                       -324.7543322369084535
  @DF-RHF Final Energy:  -324.75433096243142
    Total Energy =                       -324.7543309624314247
  Charge       = 0
  Multiplicity = 1
  Basis Set: 6-31G*
    Blend: 6-31G*
  Basis Set: (6-31G* AUX)
    Blend: CC-PVDZ-JKFIT

    Orbital Energies [Eh]
    ---------------------

    Doubly Occupied:

       1A    -15.563557     2A    -11.271836     3A    -11.255401
       4A    -11.230602     5A    -11.230355     6A    -11.219058
       7A    -11.218591     8A    -11.215427     9A     -1.233292
      10A     -1.123159    11A     -1.004690    12A     -0.995294
      13A     -0.913747    14A     -0.819275    15A     -0.793939
      16A     -0.706312    17A     -0.665535    18A     -0.633786
      19A     -0.610521    20A     -0.602518    21A     -0.574213
      22A     -0.567309    23A     -0.536139    24A     -0.502543
      25A     -0.496315    26A     -0.479172    27A     -0.414308
      28A     -0.327196    29A     -0.280838

  @DF-RHF Final Energy:  -324.75432554375942

   => Energetics <=

    Nuclear Repulsion Energy =            344.0363234695872734
    One-Electron Energy =               -1120.6114348960272764
    Two-Electron Energy =                 451.8207858826805818
    Total Energy =                       -324.7543255437594212

  Dipole Moment: [D]
     X:    -1.1709      Y:    -0.2292      Z:     0.7612     Total:     1.4153

  Basis Set: (6-31G* AUX)
    Blend: CC-PVDZ-RI
    Molecular point group: c1
  Basis Set: 6-31G*
    Blend: 6-31G*
  Basis Set: (6-31G* AUX)
    Blend: CC-PVDZ-JKFIT
  Basis Set: (6-31G* AUX)
    Blend: CC-PVDZ-JKFIT
	 Reference Energy          =    -324.7543255437594212 [Eh]
	 Singles Energy            =      -0.0000000000000000 [Eh]
	 Same-Spin Energy          =      -0.2851254937146295 [Eh]
	 Opposite-Spin Energy      =      -0.8043669830191057 [Eh]
	 Correlation Energy        =      -1.0894924767337353 [Eh]
	 Total Energy              =    -325.8438180204931314 [Eh]

	 ================> DF-SCS-MP2 Energies <==================
	-----------------------------------------------------------
	 SCS Same-Spin Scale       =       0.3333333333333333 [-]
	 SCS Opposite-Spin Scale   =       1.2000000000000000 [-]
	 SCS Same-Spin Energy      =      -0.0950418312382098 [Eh]
	 SCS Opposite-Spin Energy  =      -0.9652403796229267 [Eh]
	 SCS Correlation Energy    =      -1.0602822108611365 [Eh]
	 SCS Total Energy          =    -325.8146077546205674 [Eh]
	-----------------------------------------------------------

  -Total Gradient:
     Atom            X                  Y                   Z
    ------   -----------------  -----------------  -----------------
       1        0.000472850278    -0.001238480023     0.006255039058
       2       -0.001542696454    -0.000183312478    -0.004136576092
       3       -0.000128790172     0.001261270677    -0.005102303484
       4        0.000047448990    -0.000409301173     0.001678334074
       5       -0.000002392622     0.000015813746    -0.000059230856
       6        0.000008817890    -0.000017449094     0.000051288321
       7       -0.000000310794    -0.000030877285     0.000033602851
       8       -0.000011590371     0.000015972364    -0.000038154113
       9        0.000046900099     0.000018140257    -0.000022596571
      10       -0.000024517083    -0.000006755551    -0.000040865077
      11       -0.000027498914     0.000006616552     0.000013711849
      12       -0.000002842156    -0.000014723880     0.000021315563
      13        0.000012616450    -0.000007218186    -0.000001447477
      14        0.001145222054     0.000651963987     0.001317971741
      15       -0.000000813398    -0.000012588978     0.000024181038
      16        0.000009498986    -0.000045964829     0.000000653986
      17       -0.000001902784    -0.000003106108     0.000005075190

  **** Optimization is complete! (in 23 steps) ****
    Final optimized geometry and variables:
    Molecular point group: c1

    Geometry (in Angstrom), charge = 0, multiplicity = 1:

    N           -1.881142051244    -0.436749712957    -0.030404581389
    C           -2.812495288730     0.629759805862     0.258829277794
    C           -0.504889730087    -0.216983088539    -0.024321436538
    C            0.062302616874     1.034461151525     0.258522076727
    C            0.352568095897    -1.290845550659    -0.321229782164
    C            1.446861431582     1.204739537014     0.211761168354
    C            1.730301148855    -1.115583948489    -0.345188123330
    C            2.290263635550     0.137381496427    -0.083819437201
    H           -2.160381484384    -1.352509211933     0.297784409576
    H           -0.567590824274     1.878378810742     0.521028344503
    H           -0.079817012662    -2.263523442248    -0.549512582114
    H            1.865864899966     2.184404030814     0.429710527174
    H            2.371248040314    -1.962635175823    -0.578101137977
    H           -2.582998629057     1.490022413705    -0.373568666438
    H           -3.821850449607     0.288272314745     0.021645436874
    H           -2.794484244273     0.970121329709     1.305880837687
    H            3.367289568063     0.276347620175    -0.111294477097

*** Psi4 exiting successfully. Buy a developer a beer!
