                               Psi4 1.3.2 release

  ==> Input File <==

--------------------------------------------------------------------------
molecule {
0 1
N -1.881142051244 -0.436749712957 -0.030404581389
C -2.812495288730 0.629759805862 0.258829277794
C -0.504889730087 -0.216983088539 -0.024321436538
C 0.062302616874 1.034461151525 0.258522076727
C 0.352568095897 -1.290845550659 -0.321229782164
C 1.446861431582 1.204739537014 0.211761168354
C 1.730301148855 -1.115583948489 -0.345188123330
C 2.290263635550 0.137381496427 -0.083819437201
H -2.160381484384 -1.352509211933 0.297784409576
H -0.567590824274 1.878378810742 0.521028344503
H -0.079817012662 -2.263523442248 -0.549512582114
H 1.865864899966 2.184404030814 0.429710527174
H 2.371248040314 -1.962635175823 -0.578101137977
H -2.582998629057 1.490022413705 -0.373568666438
H -3.821850449607 0.288272314745 0.021645436874
H -2.794484244273 0.970121329709 1.305880837687
H 3.367289568063 0.276347620175 -0.111294477097
}
memory 8.333333333333334GB
set_num_threads(1)
psi4_io.set_default_path("/scratch/bdw2292/Psi4-1_Index_0-farH_in17")
set maxiter 500
set freeze_core True
set PROPERTIES_ORIGIN ["COM"]
set cubeprop_tasks ['esp']
E, wfn = properties('mp2/aug-cc-pVTZ',properties=['dipole'],return_wfn=True)
cubeprop(wfn)
fchk(wfn, "1_Index_0-esp.fchk")
oeprop(wfn,"GRID_ESP","WIBERG_LOWDIN_INDICES","MULLIKEN_CHARGES")
clean()
--------------------------------------------------------------------------

    Molecular point group: c1
  Charge       = 0
  Multiplicity = 1
  Basis Set: AUG-CC-PVTZ
    Blend: AUG-CC-PVTZ
  Basis Set: (AUG-CC-PVTZ AUX)
    Blend: AUG-CC-PVTZ-JKFIT

    Orbital Energies [Eh]
    ---------------------

    Doubly Occupied:

       1A    -15.563773     2A    -11.275687     3A    -11.256509
       4A    -11.233598     5A    -11.233378     6A    -11.222013
       7A    -11.221480     8A    -11.217889     9A     -1.238412
      10A     -1.129148    11A     -1.010176    12A     -1.000369
      13A     -0.917312    14A     -0.824780    15A     -0.799093
      16A     -0.711446    17A     -0.670185    18A     -0.638596
      19A     -0.615342    20A     -0.606883    21A     -0.579250
      22A     -0.572222    23A     -0.538611    24A     -0.508524
      25A     -0.502067    26A     -0.484286    27A     -0.420959
      28A     -0.334016    29A     -0.288260

  @DF-RHF Final Energy:  -324.87048589520407

   => Energetics <=

    Nuclear Repulsion Energy =            344.0363234695516894
    One-Electron Energy =               -1120.5850928103106980
    Two-Electron Energy =                 451.6782834455549391
    Total Energy =                       -324.8704858952040695
  Basis Set: (AUG-CC-PVTZ AUX)
    Blend: AUG-CC-PVTZ-RI
    Molecular point group: c1

    Geometry (in Angstrom), charge = 0, multiplicity = 1:

       Center              X                  Y                   Z               Mass
    ------------   -----------------  -----------------  -----------------  -----------------
         N           -1.881142051244    -0.436749712957    -0.030404581389    14.003074004430
         C           -2.812495288730     0.629759805862     0.258829277794    12.000000000000
         C           -0.504889730087    -0.216983088539    -0.024321436538    12.000000000000
         C            0.062302616874     1.034461151525     0.258522076727    12.000000000000
         C            0.352568095897    -1.290845550659    -0.321229782164    12.000000000000
         C            1.446861431582     1.204739537014     0.211761168354    12.000000000000
         C            1.730301148855    -1.115583948489    -0.345188123330    12.000000000000
         C            2.290263635550     0.137381496427    -0.083819437201    12.000000000000
         H           -2.160381484384    -1.352509211933     0.297784409576     1.007825032230
         H           -0.567590824274     1.878378810742     0.521028344503     1.007825032230
         H           -0.079817012662    -2.263523442248    -0.549512582114     1.007825032230
         H            1.865864899966     2.184404030814     0.429710527174     1.007825032230
         H            2.371248040314    -1.962635175823    -0.578101137977     1.007825032230
         H           -2.582998629057     1.490022413705    -0.373568666438     1.007825032230
         H           -3.821850449607     0.288272314745     0.021645436874     1.007825032230
         H           -2.794484244273     0.970121329709     1.305880837687     1.007825032230
         H            3.367289568063     0.276347620175    -0.111294477097     1.007825032230

  Basis Set: AUG-CC-PVTZ
    Blend: AUG-CC-PVTZ
  Basis Set: (AUG-CC-PVTZ AUX)
    Blend: AUG-CC-PVTZ-JKFIT
	 Reference Energy          =    -324.8704858952040695 [Eh]
	 Singles Energy            =      -0.0000000000000000 [Eh]
	 Same-Spin Energy          =      -0.3365853816788107 [Eh]
	 Opposite-Spin Energy      =      -1.0212304171487532 [Eh]
	 Correlation Energy        =      -1.3578157988275639 [Eh]
	 Total Energy              =    -326.2283016940316429 [Eh]

	 ================> DF-SCS-MP2 Energies <==================
	-----------------------------------------------------------
	 SCS Same-Spin Scale       =       0.3333333333333333 [-]
	 SCS Opposite-Spin Scale   =       1.2000000000000000 [-]
	 SCS Same-Spin Energy      =      -0.1121951272262702 [Eh]
	 SCS Opposite-Spin Energy  =      -1.2254765005785038 [Eh]
	 SCS Correlation Energy    =      -1.3376716278047740 [Eh]
	 SCS Total Energy          =    -326.2081575230088220 [Eh]
	-----------------------------------------------------------

  Dipole Moment: [D]
     X:    -1.4725      Y:    -0.2372      Z:     0.6434     Total:     1.6243

  Basis Set: AUG-CC-PVTZ
    Blend: AUG-CC-PVTZ

  Mulliken Charges: (a.u.)
   Center  Symbol    Alpha    Beta     Spin     Total
       1     N     3.77905  3.77905  0.00000 -0.55810
       2     C     3.52649  3.52649  0.00000 -1.05297
       3     C     2.39328  2.39328  0.00000  1.21345
       4     C     3.26388  3.26388  0.00000 -0.52777
       5     C     3.43893  3.43893  0.00000 -0.87787
       6     C     3.34115  3.34115  0.00000 -0.68231
       7     C     3.19133  3.19133  0.00000 -0.38267
       8     C     3.23871  3.23871  0.00000 -0.47741
       9     H     0.46872  0.46872  0.00000  0.06257
      10     H     0.24877  0.24877  0.00000  0.50246
      11     H     0.22240  0.22240  0.00000  0.55521
      12     H     0.33523  0.33523  0.00000  0.32953
      13     H     0.32863  0.32863  0.00000  0.34273
      14     H     0.32795  0.32795  0.00000  0.34410
      15     H     0.30980  0.30980  0.00000  0.38041
      16     H     0.34344  0.34344  0.00000  0.31312
      17     H     0.24223  0.24223  0.00000  0.51553

   Total alpha = 29.00000, Total beta = 29.00000, Total charge = -0.00000

*** Psi4 exiting successfully. Buy a developer a beer!
