                               Psi4 1.3.2 release

  ==> Input File <==

--------------------------------------------------------------------------
molecule {
0 1
C          0.76840       -0.39010        0.07510
C          0.81870        0.79670        0.73960
N          2.01500        1.48570        1.02620
H          2.04670        2.35900        1.59500
C          3.32760        1.04510        0.55700
C         -0.38080        1.37730        1.15150
C         -0.45250       -0.99130       -0.17810
C         -1.58120        0.75890        0.88810
C         -1.67290       -0.44230        0.21710
H          1.69470       -0.88110       -0.25600
H         -0.33620        2.31250        1.67300
H         -0.49600       -1.93920       -0.70890
H         -2.48410        1.26410        1.24600
H          3.21880        0.14840       -0.01660
H          3.96190        0.85600        1.39770
H          3.76280        1.80840       -0.05360
H         -2.57650       -0.90090        0.02180
}
memory 100GB
set_num_threads(12)
psi4_io.set_default_path("/scratch/bdw2292/Psi4-farH_in17")
set maxiter 500
set freeze_core True
set PROPERTIES_ORIGIN ["COM"]
set cubeprop_tasks ['esp']
E, wfn = properties('hf/MINIX',properties=['dipole'],return_wfn=True)
cubeprop(wfn)
fchk(wfn, "farH_in17-esp_frag.fchk")
oeprop(wfn,"WIBERG_LOWDIN_INDICES","MULLIKEN_CHARGES")
clean()
--------------------------------------------------------------------------

    Molecular point group: c1

    Geometry (in Angstrom), charge = 0, multiplicity = 1:

       Center              X                  Y                   Z               Mass
    ------------   -----------------  -----------------  -----------------  -----------------
         C            0.329405357119    -0.873156081955    -0.491896363071    12.000000000000
         C            0.379705357119     0.313643918045     0.172603636929    12.000000000000
         N            1.576005357119     1.002643918045     0.459203636929    14.003074004430
         H            1.607705357119     1.875943918045     1.028003636929     1.007825032230
         C            2.888605357119     0.562043918045    -0.009996363071    12.000000000000
         C           -0.819794642881     0.894243918045     0.584503636929    12.000000000000
         C           -0.891494642881    -1.474356081955    -0.745096363071    12.000000000000
         C           -2.020194642881     0.275843918045     0.321103636929    12.000000000000
         C           -2.111894642881    -0.925356081955    -0.349896363071    12.000000000000
         H            1.255705357119    -1.364156081955    -0.822996363071     1.007825032230
         H           -0.775194642881     1.829443918045     1.106003636929     1.007825032230
         H           -0.934994642881    -2.422256081955    -1.275896363071     1.007825032230
         H           -2.923094642881     0.781043918045     0.679003636929     1.007825032230
         H            2.779805357119    -0.334656081955    -0.583596363071     1.007825032230
         H            3.522905357119     0.372943918045     0.830703636929     1.007825032230
         H            3.323805357119     1.325343918045    -0.620596363071     1.007825032230
         H           -3.015494642881    -1.383956081955    -0.545196363071     1.007825032230

  Charge       = 0
  Multiplicity = 1
  Basis Set: MINIX
    Blend: MINIX
  Basis Set: (MINIX AUX)
    Blend: DEF2-SVP-JKFIT

    Orbital Energies [Eh]
    ---------------------

    Doubly Occupied:

       1A    -15.394736     2A    -11.234008     3A    -11.196404
       4A    -11.171194     5A    -11.170612     6A    -11.154399
       7A    -11.152499     8A    -11.151147     9A     -1.217447
      10A     -1.138295    11A     -1.014902    12A     -1.013428
      13A     -0.917366    14A     -0.826730    15A     -0.796466
      16A     -0.715497    17A     -0.666279    18A     -0.630204
      19A     -0.616836    20A     -0.610855    21A     -0.575241
      22A     -0.565537    23A     -0.542001    24A     -0.532707
      25A     -0.504343    26A     -0.465381    27A     -0.425148
      28A     -0.346101    29A     -0.283918

  @DF-RHF Final Energy:  -322.52830982073118

   => Energetics <=

    Nuclear Repulsion Energy =            345.3158927424869944
    One-Electron Energy =               -1119.6290928102641828
    Two-Electron Energy =                 451.7848902470460075
    Total Energy =                       -322.5283098207311809

  Dipole Moment: [D]
     X:     1.3325      Y:     0.7379      Z:     0.3226     Total:     1.5570

  Basis Set: MINIX
    Blend: MINIX

  Mulliken Charges: (a.u.)
   Center  Symbol    Alpha    Beta     Spin     Total
       1     C     3.08859  3.08859  0.00000 -0.17717
       2     C     2.94274  2.94274  0.00000  0.11453
       3     N     3.69974  3.69974  0.00000 -0.39948
       4     H     0.38028  0.38028  0.00000  0.23945
       5     C     3.13219  3.13219  0.00000 -0.26439
       6     C     3.08417  3.08417  0.00000 -0.16835
       7     C     3.05775  3.05775  0.00000 -0.11550
       8     C     3.06096  3.06096  0.00000 -0.12191
       9     C     3.09042  3.09042  0.00000 -0.18084
      10     H     0.43390  0.43390  0.00000  0.13219
      11     H     0.43546  0.43546  0.00000  0.12908
      12     H     0.43183  0.43183  0.00000  0.13633
      13     H     0.43170  0.43170  0.00000  0.13659
      14     H     0.42925  0.42925  0.00000  0.14150
      15     H     0.43472  0.43472  0.00000  0.13057
      16     H     0.43445  0.43445  0.00000  0.13110
      17     H     0.43186  0.43186  0.00000  0.13629

   Total alpha = 29.00000, Total beta = 29.00000, Total charge = -0.00000

*** Psi4 exiting successfully. Buy a developer a beer!
