                               Psi4 1.3.2 release

  ==> Input File <==

--------------------------------------------------------------------------
molecule {
0 1
N 1.277064913789 -0.214267276630 0.603034175677
C 0.348108133129 -0.644924975635 -0.333548457860
C -0.787582022308 0.334141759714 -0.200754800637
C -0.409726458802 1.282184917723 0.834235092233
C 0.815976944720 0.918936055342 1.279510987105
H 2.161790198063 -0.680080040002 0.752707843014
O 0.457734511930 -1.609569704967 -1.081848097927
C -1.891618133578 0.237245422501 -0.960437401028
H -0.994400232997 2.121067266748 1.185948638425
H 1.430189858358 1.376575122952 2.044790634953
H -1.970306829791 -0.564717305264 -1.688222976727
H -2.717080672137 0.936530370979 -0.874669296367
}
memory 8.333333333333334GB
set_num_threads(1)
psi4_io.set_default_path("/scratch/bdw2292/Psi4-2_Index_0-farH_in17")
set maxiter 500
set freeze_core True
set PROPERTIES_ORIGIN ["COM"]
set cubeprop_tasks ['esp']
E, wfn = properties('mp2/aug-cc-pVTZ',properties=['dipole'],return_wfn=True)
cubeprop(wfn)
fchk(wfn, "2_Index_0-esp.fchk")
oeprop(wfn,"GRID_ESP","WIBERG_LOWDIN_INDICES","MULLIKEN_CHARGES")
clean()
--------------------------------------------------------------------------

    Molecular point group: c1
  Charge       = 0
  Multiplicity = 1
  Basis Set: AUG-CC-PVTZ
    Blend: AUG-CC-PVTZ
  Basis Set: (AUG-CC-PVTZ AUX)
    Blend: AUG-CC-PVTZ-JKFIT

    Orbital Energies [Eh]
    ---------------------

    Doubly Occupied:

       1A    -20.530691     2A    -15.606553     3A    -11.360770
       4A    -11.299665     5A    -11.257636     6A    -11.255922
       7A    -11.238610     8A     -1.383091     9A     -1.279137
      10A     -1.096541    11A     -1.008788    12A     -0.910174
      13A     -0.810819    14A     -0.752131    15A     -0.714843
      16A     -0.646392    17A     -0.618869    18A     -0.607885
      19A     -0.607546    20A     -0.589445    21A     -0.540838
      22A     -0.479025    23A     -0.428404    24A     -0.423557
      25A     -0.309716

  @DF-RHF Final Energy:  -321.65602910147624

   => Energetics <=

    Nuclear Repulsion Energy =            274.1986373707176199
    One-Electron Energy =                -980.1952392965181389
    Two-Electron Energy =                 384.3405728243242834
    Total Energy =                       -321.6560291014762356
  Basis Set: (AUG-CC-PVTZ AUX)
    Blend: AUG-CC-PVTZ-RI
    Molecular point group: c1

    Geometry (in Angstrom), charge = 0, multiplicity = 1:

       Center              X                  Y                   Z               Mass
    ------------   -----------------  -----------------  -----------------  -----------------
         N            1.277064913789    -0.214267276630     0.603034175677    14.003074004430
         C            0.348108133129    -0.644924975635    -0.333548457860    12.000000000000
         C           -0.787582022308     0.334141759714    -0.200754800637    12.000000000000
         C           -0.409726458802     1.282184917723     0.834235092233    12.000000000000
         C            0.815976944720     0.918936055342     1.279510987105    12.000000000000
         H            2.161790198063    -0.680080040002     0.752707843014     1.007825032230
         O            0.457734511930    -1.609569704967    -1.081848097927    15.994914619570
         C           -1.891618133578     0.237245422501    -0.960437401028    12.000000000000
         H           -0.994400232997     2.121067266748     1.185948638425     1.007825032230
         H            1.430189858358     1.376575122952     2.044790634953     1.007825032230
         H           -1.970306829791    -0.564717305264    -1.688222976727     1.007825032230
         H           -2.717080672137     0.936530370979    -0.874669296367     1.007825032230

  Basis Set: AUG-CC-PVTZ
    Blend: AUG-CC-PVTZ
  Basis Set: (AUG-CC-PVTZ AUX)
    Blend: AUG-CC-PVTZ-JKFIT
	 Reference Energy          =    -321.6560291014762356 [Eh]
	 Singles Energy            =      -0.0000000000000000 [Eh]
	 Same-Spin Energy          =      -0.3126420842351121 [Eh]
	 Opposite-Spin Energy      =      -0.9216062750116607 [Eh]
	 Correlation Energy        =      -1.2342483592467728 [Eh]
	 Total Energy              =    -322.8902774607229844 [Eh]

	 ================> DF-SCS-MP2 Energies <==================
	-----------------------------------------------------------
	 SCS Same-Spin Scale       =       0.3333333333333333 [-]
	 SCS Opposite-Spin Scale   =       1.2000000000000000 [-]
	 SCS Same-Spin Energy      =      -0.1042140280783707 [Eh]
	 SCS Opposite-Spin Energy  =      -1.1059275300139928 [Eh]
	 SCS Correlation Energy    =      -1.2101415580923636 [Eh]
	 SCS Total Energy          =    -322.8661706595685814 [Eh]
	-----------------------------------------------------------

  Dipole Moment: [D]
     X:     0.3915      Y:     2.4129      Z:     2.2847     Total:     3.3459

  Basis Set: AUG-CC-PVTZ
    Blend: AUG-CC-PVTZ

  Mulliken Charges: (a.u.)
   Center  Symbol    Alpha    Beta     Spin     Total
       1     N     3.46873  3.46873  0.00000  0.06255
       2     C     2.91231  2.91231  0.00000  0.17538
       3     C     2.38187  2.38187  0.00000  1.23625
       4     C     3.29113  3.29113  0.00000 -0.58226
       5     C     3.37199  3.37199  0.00000 -0.74398
       6     H     0.43028  0.43028  0.00000  0.13944
       7     O     4.38343  4.38343  0.00000 -0.76687
       8     C     3.63480  3.63480  0.00000 -1.26959
       9     H     0.30780  0.30780  0.00000  0.38440
      10     H     0.16630  0.16630  0.00000  0.66739
      11     H     0.33614  0.33614  0.00000  0.32772
      12     H     0.31522  0.31522  0.00000  0.36956

   Total alpha = 25.00000, Total beta = 25.00000, Total charge =  0.00000

*** Psi4 exiting successfully. Buy a developer a beer!
