                               Psi4 1.3.2 release

  ==> Input File <==

--------------------------------------------------------------------------
molecule {
0 1
N 1.277064913789 -0.214267276630 0.603034175677
C 0.348108133129 -0.644924975635 -0.333548457860
C -0.787582022308 0.334141759714 -0.200754800637
C -0.409726458802 1.282184917723 0.834235092233
C 0.815976944720 0.918936055342 1.279510987105
H 2.161790198063 -0.680080040002 0.752707843014
O 0.457734511930 -1.609569704967 -1.081848097927
C -1.891618133578 0.237245422501 -0.960437401028
H -0.994400232997 2.121067266748 1.185948638425
H 1.430189858358 1.376575122952 2.044790634953
H -1.970306829791 -0.564717305264 -1.688222976727
H -2.717080672137 0.936530370979 -0.874669296367
}
memory 8.333333333333334GB
set_num_threads(1)
psi4_io.set_default_path("/scratch/bdw2292/Psi4-2_Index_0-farH_in17")
set freeze_core True
set PROPERTIES_ORIGIN ["COM"]
set cubeprop_tasks ['esp']
E, wfn = properties('mp2/6-311G**',properties=['dipole'],return_wfn=True)
cubeprop(wfn)
fchk(wfn, "2_Index_0-dma.fchk")
clean()
--------------------------------------------------------------------------

    Molecular point group: c1
  Charge       = 0
  Multiplicity = 1
  Basis Set: 6-311G**
    Blend: 6-311G**
  Basis Set: (6-311G** AUX)
    Blend: CC-PVTZ-JKFIT

    Orbital Energies [Eh]
    ---------------------

    Doubly Occupied:

       1A    -20.522614     2A    -15.600933     3A    -11.358623
       4A    -11.297744     5A    -11.254907     6A    -11.253231
       7A    -11.235827     8A     -1.380657     9A     -1.276948
      10A     -1.094365    11A     -1.007049    12A     -0.908231
      13A     -0.808695    14A     -0.749970    15A     -0.712704
      16A     -0.644437    17A     -0.615926    18A     -0.606144
      19A     -0.603712    20A     -0.587496    21A     -0.538535
      22A     -0.474640    23A     -0.424253    24A     -0.420547
      25A     -0.306556

  @DF-RHF Final Energy:  -321.61537122717453

   => Energetics <=

    Nuclear Repulsion Energy =            274.1986373707176199
    One-Electron Energy =                -980.2585276174194178
    Two-Electron Energy =                 384.4445190195272630
    Total Energy =                       -321.6153712271745349
  Basis Set: (6-311G** AUX)
    Blend: CC-PVTZ-RI
    Molecular point group: c1

    Geometry (in Angstrom), charge = 0, multiplicity = 1:

       Center              X                  Y                   Z               Mass
    ------------   -----------------  -----------------  -----------------  -----------------
         N            1.277064913789    -0.214267276630     0.603034175677    14.003074004430
         C            0.348108133129    -0.644924975635    -0.333548457860    12.000000000000
         C           -0.787582022308     0.334141759714    -0.200754800637    12.000000000000
         C           -0.409726458802     1.282184917723     0.834235092233    12.000000000000
         C            0.815976944720     0.918936055342     1.279510987105    12.000000000000
         H            2.161790198063    -0.680080040002     0.752707843014     1.007825032230
         O            0.457734511930    -1.609569704967    -1.081848097927    15.994914619570
         C           -1.891618133578     0.237245422501    -0.960437401028    12.000000000000
         H           -0.994400232997     2.121067266748     1.185948638425     1.007825032230
         H            1.430189858358     1.376575122952     2.044790634953     1.007825032230
         H           -1.970306829791    -0.564717305264    -1.688222976727     1.007825032230
         H           -2.717080672137     0.936530370979    -0.874669296367     1.007825032230

  Basis Set: 6-311G**
    Blend: 6-311G**
  Basis Set: (6-311G** AUX)
    Blend: CC-PVTZ-JKFIT
	 Reference Energy          =    -321.6153712271745349 [Eh]
	 Singles Energy            =      -0.0000000000000000 [Eh]
	 Same-Spin Energy          =      -0.2754613057515708 [Eh]
	 Opposite-Spin Energy      =      -0.7694848907702155 [Eh]
	 Correlation Energy        =      -1.0449461965217863 [Eh]
	 Total Energy              =    -322.6603174236963127 [Eh]

	 ================> DF-SCS-MP2 Energies <==================
	-----------------------------------------------------------
	 SCS Same-Spin Scale       =       0.3333333333333333 [-]
	 SCS Opposite-Spin Scale   =       1.2000000000000000 [-]
	 SCS Same-Spin Energy      =      -0.0918204352505236 [Eh]
	 SCS Opposite-Spin Energy  =      -0.9233818689242586 [Eh]
	 SCS Correlation Energy    =      -1.0152023041747822 [Eh]
	 SCS Total Energy          =    -322.6305735313493415 [Eh]
	-----------------------------------------------------------

  Dipole Moment: [D]
     X:     0.5635      Y:     2.1949      Z:     2.2055     Total:     3.1622

  Basis Set: 6-311G**
    Blend: 6-311G**
*** Psi4 exiting successfully. Buy a developer a beer!
