                               Psi4 1.3.2 release

  ==> Input File <==

--------------------------------------------------------------------------
molecule {
0 1
 N    1.513400   -0.531400    0.479300
 C    0.522800   -0.927500   -0.464500
 C   -0.586800    0.012900   -0.349500
 C   -0.191600    0.941300    0.679600
 C    0.999500    0.613800    1.133800
 H    2.452900   -0.981100    0.675500
 O    0.633500   -1.918800   -1.236100
 C   -1.706500   -0.028800   -1.072500
 H   -0.798800    1.782200    1.019000
 H    1.504500    1.164500    1.910400
 H   -1.841600   -0.804600   -1.812600
 H   -2.501300    0.677500   -0.962300
}
set {
  geom_maxiter 400
  g_convergence GAU
  dynamic_level 1
}
memory 8.333333333333334GB
set_num_threads(1)
psi4_io.set_default_path("/scratch/bdw2292/Psi4-2_Index_0-farH_in17")
for _ in range(1):
  try:
    set opt_coordinates both
    optimize('mp2/6-31G*')
    break
  except OptimizationConvergenceError:
    break
  else:
    try:
      set opt_coordinates cartesian
      optimize('mp2/6-31G*')
      break
    except OptimizationConvergenceError:
      pass
clean()
--------------------------------------------------------------------------

    Molecular point group: c1
  Charge       = 0
  Multiplicity = 1
  Basis Set: 6-31G*
    Blend: 6-31G*
  Basis Set: (6-31G* AUX)
    Blend: CC-PVDZ-JKFIT
  @DF-RHF Final Energy:  -321.52099137906100
    Total Energy =                       -321.5209913790610017
  Basis Set: (6-31G* AUX)
    Blend: CC-PVDZ-RI
    Molecular point group: c1
  Basis Set: 6-31G*
    Blend: 6-31G*
  Basis Set: (6-31G* AUX)
    Blend: CC-PVDZ-JKFIT
  Basis Set: (6-31G* AUX)
    Blend: CC-PVDZ-JKFIT
	 Reference Energy          =    -321.5209913790610017 [Eh]
	 Singles Energy            =      -0.0000000000000000 [Eh]
	 Same-Spin Energy          =      -0.2655449097577751 [Eh]
	 Opposite-Spin Energy      =      -0.7329964635445695 [Eh]
	 Correlation Energy        =      -0.9985413733023446 [Eh]
	 Total Energy              =    -322.5195327523633182 [Eh]
	 SCS Total Energy          =    -322.4891021052337692 [Eh]
  @DF-RHF Final Energy:  -321.53540749060983
    Total Energy =                       -321.5354074906098276
  @DF-RHF Final Energy:  -321.53661432204251
    Total Energy =                       -321.5366143220425101
  @DF-RHF Final Energy:  -321.53645302345808
    Total Energy =                       -321.5364530234580798
  @DF-RHF Final Energy:  -321.53647827001595
    Total Energy =                       -321.5364782700159481
  @DF-RHF Final Energy:  -321.53649976028487
    Total Energy =                       -321.5364997602848689
  @DF-RHF Final Energy:  -321.53647827001311
    Total Energy =                       -321.5364782700131059
  @DF-RHF Final Energy:  -321.53648696021634
    Total Energy =                       -321.5364869602163367
  Charge       = 0
  Multiplicity = 1
  Basis Set: 6-31G*
    Blend: 6-31G*
  Basis Set: (6-31G* AUX)
    Blend: CC-PVDZ-JKFIT

    Orbital Energies [Eh]
    ---------------------

    Doubly Occupied:

       1A    -20.532940     2A    -15.606231     3A    -11.358435
       4A    -11.297105     5A    -11.254351     6A    -11.252216
       7A    -11.235233     8A     -1.377135     9A     -1.273463
      10A     -1.090558    11A     -1.003338    12A     -0.904854
      13A     -0.805378    14A     -0.746710    15A     -0.708612
      16A     -0.640962    17A     -0.610955    18A     -0.603167
      19A     -0.599635    20A     -0.583406    21A     -0.535040
      22A     -0.470089    23A     -0.419613    24A     -0.416203
      25A     -0.301890

  @DF-RHF Final Energy:  -321.53648339056986

   => Energetics <=

    Nuclear Repulsion Energy =            274.1986373707222242
    One-Electron Energy =                -980.2152053037417545
    Two-Electron Energy =                 384.4800845424497311
    Total Energy =                       -321.5364833905698561

  Dipole Moment: [D]
     X:     0.2564      Y:     2.8179      Z:     2.5432     Total:     3.8045

  Basis Set: (6-31G* AUX)
    Blend: CC-PVDZ-RI
    Molecular point group: c1
  Basis Set: 6-31G*
    Blend: 6-31G*
  Basis Set: (6-31G* AUX)
    Blend: CC-PVDZ-JKFIT
  Basis Set: (6-31G* AUX)
    Blend: CC-PVDZ-JKFIT
	 Reference Energy          =    -321.5364833905698561 [Eh]
	 Singles Energy            =      -0.0000000000000000 [Eh]
	 Same-Spin Energy          =      -0.2644041410965701 [Eh]
	 Opposite-Spin Energy      =      -0.7302402934166025 [Eh]
	 Correlation Energy        =      -0.9946444345131725 [Eh]
	 Total Energy              =    -322.5311278250830469 [Eh]

	 ================> DF-SCS-MP2 Energies <==================
	-----------------------------------------------------------
	 SCS Same-Spin Scale       =       0.3333333333333333 [-]
	 SCS Opposite-Spin Scale   =       1.2000000000000000 [-]
	 SCS Same-Spin Energy      =      -0.0881347136988567 [Eh]
	 SCS Opposite-Spin Energy  =      -0.8762883520999230 [Eh]
	 SCS Correlation Energy    =      -0.9644230657987797 [Eh]
	 SCS Total Energy          =    -322.5009064563686252 [Eh]
	-----------------------------------------------------------

  -Total Gradient:
     Atom            X                  Y                   Z
    ------   -----------------  -----------------  -----------------
       1       -0.000004956420    -0.000010061575     0.000124589195
       2        0.000147550629     0.000214995516    -0.000157408352
       3       -0.000037996779    -0.000149846646     0.000016059117
       4        0.000023454399     0.000005543228    -0.000003418606
       5       -0.000059366646     0.000077077078    -0.000014313485
       6       -0.000016152050    -0.000028817082    -0.000016897989
       7       -0.000038213150    -0.000128938176     0.000022443960
       8       -0.000020021031     0.000033574525     0.000031879665
       9       -0.000030929156    -0.000000334953    -0.000006561520
      10        0.000037200471    -0.000035660470     0.000003334802
      11       -0.000019600335     0.000009203458    -0.000002744139
      12        0.000019030066     0.000013265094     0.000003037358

  **** Optimization is complete! (in 2 steps) ****
    Final optimized geometry and variables:
    Molecular point group: c1

    Geometry (in Angstrom), charge = 0, multiplicity = 1:

    N            1.277064913789    -0.214267276630     0.603034175677
    C            0.348108133129    -0.644924975635    -0.333548457860
    C           -0.787582022308     0.334141759714    -0.200754800637
    C           -0.409726458802     1.282184917723     0.834235092233
    C            0.815976944720     0.918936055342     1.279510987105
    H            2.161790198063    -0.680080040002     0.752707843014
    O            0.457734511930    -1.609569704967    -1.081848097927
    C           -1.891618133578     0.237245422501    -0.960437401028
    H           -0.994400232997     2.121067266748     1.185948638425
    H            1.430189858358     1.376575122952     2.044790634953
    H           -1.970306829791    -0.564717305264    -1.688222976727
    H           -2.717080672137     0.936530370979    -0.874669296367

*** Psi4 exiting successfully. Buy a developer a beer!
