                               Psi4 1.3.2 release

  ==> Input File <==

--------------------------------------------------------------------------
molecule {
0 1
N          4.75960       -0.28370        3.57990
C          3.68450        0.32970        2.90270
C          4.10300        0.54460        1.49040
C          5.45820        0.01300        1.45740
C          5.83990       -0.47630        2.69740
H          4.76100       -0.55540        4.58480
O          2.58000        0.63820        3.39650
C          3.32760        1.04510        0.55700
H          6.05830        0.00180        0.61790
H          6.74980       -0.90370        2.93090
H          3.68720        1.16550       -0.40280
H          2.35840        1.31820        0.78290
}
memory 100GB
set_num_threads(12)
psi4_io.set_default_path("/scratch/bdw2292/Psi4-farH_in17")
set maxiter 500
set freeze_core True
set PROPERTIES_ORIGIN ["COM"]
set cubeprop_tasks ['esp']
E, wfn = properties('hf/MINIX',properties=['dipole'],return_wfn=True)
cubeprop(wfn)
fchk(wfn, "farH_in17-esp_frag.fchk")
oeprop(wfn,"WIBERG_LOWDIN_INDICES","MULLIKEN_CHARGES")
clean()
--------------------------------------------------------------------------

    Molecular point group: c1

    Geometry (in Angstrom), charge = 0, multiplicity = 1:

       Center              X                  Y                   Z               Mass
    ------------   -----------------  -----------------  -----------------  -----------------
         N            0.543628148788    -0.544050015302     1.240861667951    14.003074004430
         C           -0.531471851212     0.069349984698     0.563661667951    12.000000000000
         C           -0.112971851212     0.284249984698    -0.848638332049    12.000000000000
         C            1.242228148788    -0.247350015302    -0.881638332049    12.000000000000
         C            1.623928148788    -0.736650015302     0.358361667951    12.000000000000
         H            0.545028148788    -0.815750015302     2.245761667951     1.007825032230
         O           -1.635971851212     0.377849984698     1.057461667951    15.994914619570
         C           -0.888371851212     0.784749984698    -1.782038332049    12.000000000000
         H            1.842328148788    -0.258550015302    -1.721138332049     1.007825032230
         H            2.533828148788    -1.164050015302     0.591861667951     1.007825032230
         H           -0.528771851212     0.905149984698    -2.741838332049     1.007825032230
         H           -1.857571851212     1.057849984698    -1.556138332049     1.007825032230

  Charge       = 0
  Multiplicity = 1
  Basis Set: MINIX
    Blend: MINIX
  Basis Set: (MINIX AUX)
    Blend: DEF2-SVP-JKFIT

    Orbital Energies [Eh]
    ---------------------

    Doubly Occupied:

       1A    -20.311724     2A    -15.460375     3A    -11.325061
       4A    -11.241306     5A    -11.208511     6A    -11.190398
       7A    -11.161126     8A     -1.372305     9A     -1.261639
      10A     -1.104356    11A     -1.006753    12A     -0.918951
      13A     -0.804813    14A     -0.748571    15A     -0.712003
      16A     -0.656754    17A     -0.613359    18A     -0.610707
      19A     -0.588622    20A     -0.575465    21A     -0.532182
      22A     -0.455197    23A     -0.441726    24A     -0.405306
      25A     -0.299011

  @DF-RHF Final Energy:  -319.28503145340926

   => Energetics <=

    Nuclear Repulsion Energy =            273.9089539448877417
    One-Electron Energy =                -976.3755672280732369
    Two-Electron Energy =                 383.1815818297762917
    Total Energy =                       -319.2850314534092604

  Dipole Moment: [D]
     X:     2.8719      Y:    -1.1231      Z:    -0.2589     Total:     3.0945

  Basis Set: MINIX
    Blend: MINIX

  Mulliken Charges: (a.u.)
   Center  Symbol    Alpha    Beta     Spin     Total
       1     N     3.70301  3.70301  0.00000 -0.40603
       2     C     2.80537  2.80537  0.00000  0.38926
       3     C     3.02415  3.02415  0.00000 -0.04831
       4     C     3.09136  3.09136  0.00000 -0.18272
       5     C     3.00496  3.00496  0.00000 -0.00991
       6     H     0.35930  0.35930  0.00000  0.28140
       7     O     4.19915  4.19915  0.00000 -0.39831
       8     C     3.11973  3.11973  0.00000 -0.23945
       9     H     0.43078  0.43078  0.00000  0.13844
      10     H     0.41875  0.41875  0.00000  0.16249
      11     H     0.42506  0.42506  0.00000  0.14989
      12     H     0.41838  0.41838  0.00000  0.16324

   Total alpha = 25.00000, Total beta = 25.00000, Total charge = -0.00000

*** Psi4 exiting successfully. Buy a developer a beer!
