                               Psi4 1.5 release

  ==> Input File <==

--------------------------------------------------------------------------
molecule {
0 1
 C    1.325824   -0.674656   -0.830508
 N    0.518948    0.516095   -0.578813
 C   -0.897497    0.529290   -0.311928
 C   -1.584151   -0.781173    0.047197
 C    1.209968    1.780509   -0.378411
 H   -1.460124    0.967388   -1.158188
 H   -1.110946    1.184869    0.542288
 N   -2.944255   -0.667588    0.146470
 O   -1.011302   -1.837298    0.356022
 C    2.239957   -1.070859    0.331539
 H    0.669075   -1.505057   -1.064648
 H    1.941446   -0.489874   -1.722075
 C    1.266724    2.281054    1.073021
 H    2.226504    1.660731   -0.758586
 H    0.742456    2.559172   -0.999277
 H    1.636974   -1.294248    1.211810
 H    2.820245   -1.960753    0.075059
 H    1.824894    3.218469    1.129892
 H    0.270301    2.471119    1.477118
 H   -3.452985    0.080088   -0.287002
 H   -3.455548   -1.479924    0.441958
 H    2.943355   -0.271463    0.577244
 H    1.754390    1.545977    1.713864
}
memory 8.166666666666666GB
set_num_threads(2)
psi4_io.set_default_path("/scratch/bdw2292/Psi4-4_27_Index_0-farH_in17")
set freeze_core True
E, wfn = energy('wb97x-d/6-311+G*',return_wfn=True)
oeprop(wfn,"WIBERG_LOWDIN_INDICES")
clean()
--------------------------------------------------------------------------

    Molecular point group: c1

    Geometry (in Angstrom), charge = 0, multiplicity = 1:

       Center              X                  Y                   Z               Mass
    ------------   -----------------  -----------------  -----------------  -----------------
         C            1.325823932924    -0.674656028439    -0.830508128794    12.000000000000
         N            0.518947932924     0.516094971561    -0.578813128794    14.003074004430
         C           -0.897497067076     0.529289971561    -0.311928128794    12.000000000000
         C           -1.584151067076    -0.781173028439     0.047196871206    12.000000000000
         C            1.209967932924     1.780508971561    -0.378411128794    12.000000000000
         H           -1.460124067076     0.967387971561    -1.158188128794     1.007825032230
         H           -1.110946067076     1.184868971561     0.542287871206     1.007825032230
         N           -2.944255067076    -0.667588028439     0.146469871206    14.003074004430
         O           -1.011302067076    -1.837298028439     0.356021871206    15.994914619570
         C            2.239956932924    -1.070859028439     0.331538871206    12.000000000000
         H            0.669074932924    -1.505057028439    -1.064648128794     1.007825032230
         H            1.941445932924    -0.489874028439    -1.722075128794     1.007825032230
         C            1.266723932924     2.281053971561     1.073020871206    12.000000000000
         H            2.226503932924     1.660730971561    -0.758586128794     1.007825032230
         H            0.742455932924     2.559171971561    -0.999277128794     1.007825032230
         H            1.636973932924    -1.294248028439     1.211809871206     1.007825032230
         H            2.820244932924    -1.960753028439     0.075058871206     1.007825032230
         H            1.824893932924     3.218468971561     1.129891871206     1.007825032230
         H            0.270300932924     2.471118971561     1.477117871206     1.007825032230
         H           -3.452985067076     0.080087971561    -0.287002128794     1.007825032230
         H           -3.455548067076    -1.479924028439     0.441957871206     1.007825032230
         H            2.943354932924    -0.271463028439     0.577243871206     1.007825032230
         H            1.754389932924     1.545976971561     1.713863871206     1.007825032230

  Charge       = 0
  Multiplicity = 1
  Basis Set: 6-311+G*
    Blend: 6-311+G*
  Basis Set: (6-311+G* AUX)
    Blend: HEAVY-AUG-CC-PVTZ-JKFIT

    Orbital Energies [Eh]
    ---------------------

    Doubly Occupied:

       1A    -19.218294     2A    -14.461314     3A    -14.412104
       4A    -10.402789     5A    -10.327371     6A    -10.305612
       7A    -10.291092     8A    -10.266897     9A    -10.250434
      10A     -1.139521    11A     -1.018162    12A     -1.014354
      13A     -0.855244    14A     -0.852527    15A     -0.791377
      16A     -0.717215    17A     -0.704320    18A     -0.662455
      19A     -0.626905    20A     -0.583918    21A     -0.573322
      22A     -0.558093    23A     -0.531687    24A     -0.512808
      25A     -0.503949    26A     -0.488058    27A     -0.480396
      28A     -0.462615    29A     -0.454699    30A     -0.449098
      31A     -0.432711    32A     -0.417574    33A     -0.410892
      34A     -0.362392    35A     -0.343345    36A     -0.269368

  @DF-RKS Final Energy:  -421.75957826010199

   => Energetics <=

    Nuclear Repulsion Energy =            487.2728472097260237
    One-Electron Energy =               -1537.7607809671903851
    Two-Electron Energy =                 670.0597942632091417
    DFT Exchange-Correlation Energy =     -41.3163172557606586
    Empirical Dispersion Energy =          -0.0151215100860160
    VV10 Nonlocal Energy =                  0.0000000000000000
    Total Energy =                       -421.7595782601019323

  Dipole Moment: [D]
     X:    -2.5256      Y:     2.4806      Z:    -0.7664     Total:     3.6221

*** Psi4 exiting successfully. Buy a developer a beer!
