                               Psi4 1.5 release

  ==> Input File <==

--------------------------------------------------------------------------
molecule {
0 1
 C    1.256282   -0.725091   -0.932691
 N    0.519912    0.142581    0.043624
 C   -0.937729    0.233207   -0.242446
 C   -1.738917   -1.056012   -0.594148
 C    1.123638    1.497123    0.243622
 H   -1.100977    0.948978   -1.069438
 H   -1.440506    0.683562    0.632212
 N   -3.035985   -0.800547   -0.963617
 O   -1.323319   -2.208281   -0.460493
 C    2.682834   -1.073896   -0.463153
 H    0.707979   -1.670285   -1.046717
 H    1.261865   -0.244513   -1.925777
 C    1.859163    1.583820    1.590977
 H    1.801774    1.735480   -0.592578
 H    0.344266    2.276813    0.204884
 H    2.665639   -1.517462    0.533987
 H    3.139692   -1.797801   -1.140123
 H    2.303006    2.571334    1.725921
 H    1.172527    1.407899    2.420696
 H   -3.296358    0.114319   -1.289653
 H   -3.600108   -1.587864   -1.236504
 H    3.327019   -0.194360   -0.442173
 H    2.659707    0.846304    1.655257
}
set optking {
  frozen_dihedral = ("
    1 2 3 4
    10 1 2 5
    13 5 2 1
    2 3 4 8
    3 4 8 20
  ")
}
set {
  geom_maxiter 400
  g_convergence GAU_LOOSE
  dynamic_level 1
}
memory 8.166666666666666GB
set_num_threads(2)
psi4_io.set_default_path("/scratch/bdw2292/Psi4-4_27_Index_0-farH_in17")
for _ in range(1):
  try:
    set opt_coordinates both
    optimize('wb97x-d/6-311G')
    break
  except OptimizationConvergenceError:
    break
  else:
    try:
      set opt_coordinates cartesian
      optimize('wb97x-d/6-311G')
      break
    except OptimizationConvergenceError:
      pass
clean()
--------------------------------------------------------------------------

    Molecular point group: c1
  Charge       = 0
  Multiplicity = 1
  Basis Set: 6-311G
    Blend: 6-311G
  Basis Set: (6-311G AUX)
    Blend: CC-PVTZ-JKFIT
  @DF-RKS Final Energy:  -421.63199100629953
    Total Energy =                       -421.6319910062994722
    Molecular point group: c1
  Basis Set: 6-311G
    Blend: 6-311G
  Basis Set: (6-311G AUX)
    Blend: CC-PVTZ-JKFIT
  Basis Set: 6-311G
    Blend: 6-311G
  Basis Set: (6-311G AUX)
    Blend: CC-PVTZ-JKFIT
  @DF-RKS Final Energy:  -421.63617522874625
    Total Energy =                       -421.6361752287462537
  Basis Set: 6-311G
    Blend: 6-311G
  Basis Set: (6-311G AUX)
    Blend: CC-PVTZ-JKFIT
  Basis Set: 6-311G
    Blend: 6-311G
  @DF-RKS Final Energy:  -421.63699446311495
    Total Energy =                       -421.6369944631148883
  @DF-RKS Final Energy:  -421.63761233142435
    Total Energy =                       -421.6376123314244069
  @DF-RKS Final Energy:  -421.63790301454333
    Total Energy =                       -421.6379030145433262
  @DF-RKS Final Energy:  -421.63075630035718
    Total Energy =                       -421.6307563003571772
  @DF-RKS Final Energy:  -421.63790300909631
    Total Energy =                       -421.6379030090963056
  @DF-RKS Final Energy:  -421.63800723283333
    Total Energy =                       -421.6380072328333881
  @DF-RKS Final Energy:  -421.63825210485913
    Total Energy =                       -421.6382521048591343
  @DF-RKS Final Energy:  -421.63845048552520
    Total Energy =                       -421.6384504855251976
  @DF-RKS Final Energy:  -421.63783322400229
    Total Energy =                       -421.6378332240022928
  Basis Set: (6-311G AUX)
    Blend: CC-PVTZ-JKFIT
  Basis Set: 6-311G
    Blend: 6-311G
  Basis Set: (6-311G AUX)
    Blend: CC-PVTZ-JKFIT
  @DF-RKS Final Energy:  -421.63834767938039
    Total Energy =                       -421.6383476793804448
  Basis Set: 6-311G
    Blend: 6-311G
  Basis Set: (6-311G AUX)
    Blend: CC-PVTZ-JKFIT
  Charge       = 0
  Multiplicity = 1
  Basis Set: 6-311G
    Blend: 6-311G
  Basis Set: (6-311G AUX)
    Blend: CC-PVTZ-JKFIT

    Orbital Energies [Eh]
    ---------------------

    Doubly Occupied:

       1A    -19.217624     2A    -14.458963     3A    -14.412407
       4A    -10.407202     5A    -10.330097     6A    -10.308089
       7A    -10.294756     8A    -10.262938     9A    -10.254769
      10A     -1.154665    11A     -1.021840    12A     -1.016884
      13A     -0.859985    14A     -0.855652    15A     -0.790840
      16A     -0.720982    17A     -0.701276    18A     -0.663076
      19A     -0.631630    20A     -0.582434    21A     -0.571043
      22A     -0.566032    23A     -0.528624    24A     -0.519184
      25A     -0.502436    26A     -0.486304    27A     -0.476117
      28A     -0.462751    29A     -0.455735    30A     -0.443758
      31A     -0.430728    32A     -0.418251    33A     -0.409412
      34A     -0.355443    35A     -0.337821    36A     -0.266857

  @DF-RKS Final Energy:  -421.63845048774590

   => Energetics <=

    Nuclear Repulsion Energy =            484.4267495303571422
    One-Electron Energy =               -1531.7916180954184711
    Two-Electron Energy =                 667.0435777780102171
    DFT Exchange-Correlation Energy =     -41.3022952591617099
    Empirical Dispersion Energy =          -0.0148644415329125
    VV10 Nonlocal Energy =                  0.0000000000000000
    Total Energy =                       -421.6384504877458426

  Dipole Moment: [D]
     X:    -2.4988      Y:     2.6952      Z:    -1.6510     Total:     4.0292

    Molecular point group: c1
  Basis Set: 6-311G
    Blend: 6-311G
  Basis Set: (6-311G AUX)
    Blend: CC-PVTZ-JKFIT

  -Total Gradient:
     Atom            X                  Y                   Z
    ------   -----------------  -----------------  -----------------
       1       -0.000180423824    -0.005087511481     0.004286038874
       2        0.000642791976     0.004395224609    -0.005586434820
       3       -0.001982115605    -0.000174696123     0.006751959048
       4        0.001486096897    -0.002320376379    -0.009860621152
       5       -0.000901239620     0.001495325961     0.001512090623
       6       -0.000025056269     0.000165299650    -0.000628554993
       7        0.000075201640    -0.000022380206     0.000545018750
       8       -0.000641004182     0.002544472612     0.007345509354
       9       -0.000435922195    -0.000129443104     0.000030808511
      10        0.000471641316     0.001355636839    -0.000407435295
      11        0.000061683396     0.000224759535     0.000319671848
      12        0.000164322178     0.000279802002    -0.000622160999
      13        0.000978632613    -0.000622702471    -0.000434247022
      14        0.000394280044     0.000093406228    -0.000618229523
      15       -0.000384788234     0.000267750044     0.000023315073
      16       -0.000175982662    -0.000248539341     0.000676398924
      17        0.000251557238    -0.000446413344    -0.000298448109
      18        0.000121417168     0.000183091918     0.000044787330
      19       -0.000356106309    -0.000057843967     0.000013794770
      20        0.000024282163    -0.001382134900    -0.003416503621
      21       -0.000185953583     0.000118856052    -0.000081263918
      22        0.000051916022    -0.000109794098     0.000053147908
      23        0.000530353674    -0.000413354168     0.000283735863

  **** Optimization is complete! (in 1 steps) ****
    Final optimized geometry and variables:
    Molecular point group: c1

    Geometry (in Angstrom), charge = 0, multiplicity = 1:

    C            1.225019823732    -0.519002309743    -0.956211313403
    N            0.497986288264     0.526023694910    -0.240800940383
    C           -0.939460456560     0.596904415814    -0.272655597950
    C           -1.680628493111    -0.720636760378    -0.079938378475
    C            1.196394024348     1.770724138466     0.063578425112
    H           -1.329756876297     1.065532648669    -1.202070668643
    H           -1.271957199874     1.238704412772     0.550309181367
    N           -3.034364291226    -0.613450874150    -0.253214754419
    O           -1.162572215323    -1.779868314192     0.301285342693
    C            2.406158154890    -1.063268524419    -0.155086867233
    H            0.539098682224    -1.337215064473    -1.150739636196
    H            1.586917960551    -0.145490631733    -1.932211029196
    C            1.602263383420     1.894186448335     1.535073615329
    H            2.086291879109     1.835658957336    -0.573886326258
    H            0.565459846144     2.625286139284    -0.216598003742
    H            2.046829938764    -1.452721054020     0.798581170311
    H            2.896852201887    -1.871775503765    -0.703702207925
    H            2.084330882579     2.855961855003     1.732541436892
    H            0.722217583018     1.812193048642     2.177265037782
    H           -3.447736917144     0.141733615499    -0.769099041554
    H           -3.592168449930    -1.431403808527    -0.084826958412
    H            3.154470422624    -0.291994586881     0.040575755674
    H            2.289340994914     1.093700672212     1.811708520510

*** Psi4 exiting successfully. Buy a developer a beer!
