                               Psi4 1.5 release

  ==> Input File <==

--------------------------------------------------------------------------
molecule {
0 1
 C    1.109143   -0.004073   -1.367114
 N    0.468056    0.607723   -0.205020
 C   -0.965294    0.712408   -0.220163
 C   -1.668400   -0.630073    0.008133
 C    1.241109    1.567278    0.586180
 H   -1.358550    1.167080   -1.150461
 H   -1.283563    1.361557    0.600036
 N   -3.031963   -0.577392   -0.130259
 O   -1.087409   -1.663991    0.361832
 C    2.307124   -0.877473   -0.994612
 H    0.366601   -0.635865   -1.860028
 H    1.415477    0.767883   -2.098558
 C    1.730201    0.994059    1.920733
 H    2.099116    1.904215   -0.011997
 H    0.637541    2.464294    0.774027
 H    1.980626   -1.647389   -0.290631
 H    2.722764   -1.357223   -1.884273
 H    2.294079    1.743573    2.485420
 H    0.877852    0.668308    2.523662
 H   -3.484261    0.156430   -0.645692
 H   -3.552958   -1.420405    0.041750
 H    3.103396   -0.289832   -0.526928
 H    2.366843    0.123367    1.755513
}
memory 8.166666666666666GB
set_num_threads(2)
psi4_io.set_default_path("/scratch/bdw2292/Psi4-4_27_Index_0-farH_in17")
set freeze_core True
E, wfn = energy('wb97x-d/6-311+G*',return_wfn=True)
oeprop(wfn,"WIBERG_LOWDIN_INDICES")
clean()
--------------------------------------------------------------------------

    Molecular point group: c1

    Geometry (in Angstrom), charge = 0, multiplicity = 1:

       Center              X                  Y                   Z               Mass
    ------------   -----------------  -----------------  -----------------  -----------------
         C            1.109142899883    -0.004073079328    -1.367114034096    12.000000000000
         N            0.468055899883     0.607722920672    -0.205020034096    14.003074004430
         C           -0.965294100117     0.712407920672    -0.220163034096    12.000000000000
         C           -1.668400100117    -0.630073079328     0.008132965904    12.000000000000
         C            1.241108899883     1.567277920672     0.586179965904    12.000000000000
         H           -1.358550100117     1.167079920672    -1.150461034096     1.007825032230
         H           -1.283563100117     1.361556920672     0.600035965904     1.007825032230
         N           -3.031963100117    -0.577392079328    -0.130259034096    14.003074004430
         O           -1.087409100117    -1.663991079328     0.361831965904    15.994914619570
         C            2.307123899883    -0.877473079328    -0.994612034096    12.000000000000
         H            0.366600899883    -0.635865079328    -1.860028034096     1.007825032230
         H            1.415476899883     0.767882920672    -2.098558034096     1.007825032230
         C            1.730200899883     0.994058920672     1.920732965904    12.000000000000
         H            2.099115899883     1.904214920672    -0.011997034096     1.007825032230
         H            0.637540899883     2.464293920672     0.774026965904     1.007825032230
         H            1.980625899883    -1.647389079328    -0.290631034096     1.007825032230
         H            2.722763899883    -1.357223079328    -1.884273034096     1.007825032230
         H            2.294078899883     1.743572920672     2.485419965904     1.007825032230
         H            0.877851899883     0.668307920672     2.523661965904     1.007825032230
         H           -3.484261100117     0.156429920672    -0.645692034096     1.007825032230
         H           -3.552958100117    -1.420405079328     0.041749965904     1.007825032230
         H            3.103395899883    -0.289832079328    -0.526928034096     1.007825032230
         H            2.366842899883     0.123366920672     1.755512965904     1.007825032230

  Charge       = 0
  Multiplicity = 1
  Basis Set: 6-311+G*
    Blend: 6-311+G*
  Basis Set: (6-311+G* AUX)
    Blend: HEAVY-AUG-CC-PVTZ-JKFIT

    Orbital Energies [Eh]
    ---------------------

    Doubly Occupied:

       1A    -19.212857     2A    -14.457977     3A    -14.414269
       4A    -10.392323     5A    -10.325311     6A    -10.306686
       7A    -10.302141     8A    -10.260007     9A    -10.259180
      10A     -1.132052    11A     -1.018885    12A     -1.010827
      13A     -0.855438    14A     -0.854520    15A     -0.786214
      16A     -0.719462    17A     -0.695346    18A     -0.658570
      19A     -0.632742    20A     -0.576907    21A     -0.571172
      22A     -0.564890    23A     -0.529708    24A     -0.515745
      25A     -0.499930    26A     -0.491080    27A     -0.471885
      28A     -0.466441    29A     -0.457481    30A     -0.436723
      31A     -0.431715    32A     -0.419761    33A     -0.412745
      34A     -0.359591    35A     -0.339632    36A     -0.277232

  @DF-RKS Final Energy:  -421.76759658669425

   => Energetics <=

    Nuclear Repulsion Energy =            485.0054984206828976
    One-Electron Energy =               -1533.3262821817111217
    Two-Electron Energy =                 667.8645644057620530
    DFT Exchange-Correlation Energy =     -41.2963309247931747
    Empirical Dispersion Energy =          -0.0150463066349555
    VV10 Nonlocal Energy =                  0.0000000000000000
    Total Energy =                       -421.7675965866942533

  Dipole Moment: [D]
     X:    -2.3160      Y:     2.7509      Z:    -1.5012     Total:     3.8968

*** Psi4 exiting successfully. Buy a developer a beer!
