                               Psi4 1.5 release

  ==> Input File <==

--------------------------------------------------------------------------
molecule {
0 1
 C    1.225020   -0.519002   -0.956211
 N    0.497986    0.526024   -0.240801
 C   -0.939460    0.596904   -0.272656
 C   -1.680628   -0.720637   -0.079938
 C    1.196394    1.770724    0.063578
 H   -1.329757    1.065533   -1.202071
 H   -1.271957    1.238704    0.550309
 N   -3.034364   -0.613451   -0.253215
 O   -1.162572   -1.779868    0.301285
 C    2.406158   -1.063269   -0.155087
 H    0.539099   -1.337215   -1.150740
 H    1.586918   -0.145491   -1.932211
 C    1.602263    1.894186    1.535074
 H    2.086292    1.835659   -0.573886
 H    0.565460    2.625286   -0.216598
 H    2.046830   -1.452721    0.798581
 H    2.896852   -1.871776   -0.703702
 H    2.084331    2.855962    1.732541
 H    0.722218    1.812193    2.177265
 H   -3.447737    0.141734   -0.769099
 H   -3.592168   -1.431404   -0.084827
 H    3.154470   -0.291995    0.040576
 H    2.289341    1.093701    1.811709
}
memory 8.166666666666666GB
set_num_threads(2)
psi4_io.set_default_path("/scratch/bdw2292/Psi4-4_27_Index_0-farH_in17")
set freeze_core True
E, wfn = energy('wb97x-d/6-311+G*',return_wfn=True)
oeprop(wfn,"WIBERG_LOWDIN_INDICES")
clean()
--------------------------------------------------------------------------

    Molecular point group: c1

    Geometry (in Angstrom), charge = 0, multiplicity = 1:

       Center              X                  Y                   Z               Mass
    ------------   -----------------  -----------------  -----------------  -----------------
         C            1.225019913116    -0.519001922627    -0.956210933994    12.000000000000
         N            0.497985913116     0.526024077373    -0.240800933994    14.003074004430
         C           -0.939460086884     0.596904077373    -0.272655933994    12.000000000000
         C           -1.680628086884    -0.720636922627    -0.079937933994    12.000000000000
         C            1.196393913116     1.770724077373     0.063578066006    12.000000000000
         H           -1.329757086884     1.065533077373    -1.202070933994     1.007825032230
         H           -1.271957086884     1.238704077373     0.550309066006     1.007825032230
         N           -3.034364086884    -0.613450922627    -0.253214933994    14.003074004430
         O           -1.162572086884    -1.779867922627     0.301285066006    15.994914619570
         C            2.406157913116    -1.063268922627    -0.155086933994    12.000000000000
         H            0.539098913116    -1.337214922627    -1.150739933994     1.007825032230
         H            1.586917913116    -0.145490922627    -1.932210933994     1.007825032230
         C            1.602262913116     1.894186077373     1.535074066006    12.000000000000
         H            2.086291913116     1.835659077373    -0.573885933994     1.007825032230
         H            0.565459913116     2.625286077373    -0.216597933994     1.007825032230
         H            2.046829913116    -1.452720922627     0.798581066006     1.007825032230
         H            2.896851913116    -1.871775922627    -0.703701933994     1.007825032230
         H            2.084330913116     2.855962077373     1.732541066006     1.007825032230
         H            0.722217913116     1.812193077373     2.177265066006     1.007825032230
         H           -3.447737086884     0.141734077373    -0.769098933994     1.007825032230
         H           -3.592168086884    -1.431403922627    -0.084826933994     1.007825032230
         H            3.154469913116    -0.291994922627     0.040576066006     1.007825032230
         H            2.289340913116     1.093701077373     1.811709066006     1.007825032230

  Charge       = 0
  Multiplicity = 1
  Basis Set: 6-311+G*
    Blend: 6-311+G*
  Basis Set: (6-311+G* AUX)
    Blend: HEAVY-AUG-CC-PVTZ-JKFIT

    Orbital Energies [Eh]
    ---------------------

    Doubly Occupied:

       1A    -19.216819     2A    -14.460741     3A    -14.414156
       4A    -10.399518     5A    -10.327626     6A    -10.306797
       7A    -10.294295     8A    -10.263648     9A    -10.255826
      10A     -1.137532    11A     -1.019255    12A     -1.014717
      13A     -0.857027    14A     -0.853993    15A     -0.789082
      16A     -0.719000    17A     -0.699356    18A     -0.661555
      19A     -0.631386    20A     -0.581070    21A     -0.569562
      22A     -0.564626    23A     -0.531110    24A     -0.518605
      25A     -0.502690    26A     -0.490497    27A     -0.476030
      28A     -0.463481    29A     -0.456182    30A     -0.444424
      31A     -0.431694    32A     -0.420204    33A     -0.411306
      34A     -0.361364    35A     -0.342919    36A     -0.274760

  @DF-RKS Final Energy:  -421.76481766317863

   => Energetics <=

    Nuclear Repulsion Energy =            484.4267899915431030
    One-Electron Energy =               -1532.0650380349543411
    Two-Electron Energy =                 667.1967457287191792
    DFT Exchange-Correlation Energy =     -41.3084509066838308
    Empirical Dispersion Energy =          -0.0148644418025896
    VV10 Nonlocal Energy =                  0.0000000000000000
    Total Energy =                       -421.7648176631785759

  Dipole Moment: [D]
     X:    -2.3510      Y:     2.6619      Z:    -1.5611     Total:     3.8794

*** Psi4 exiting successfully. Buy a developer a beer!
