                               Psi4 1.5 release

  ==> Input File <==

--------------------------------------------------------------------------
molecule {
0 1
 C    1.560190   -0.468935   -1.352966
 N    0.593890    0.050134   -0.355483
 C   -0.785445    0.117304   -0.885551
 C   -1.816744   -0.448379    0.116694
 C    0.988493    1.303586    0.351546
 H   -0.885611   -0.458523   -1.822436
 H   -1.073875    1.145193   -1.165463
 N   -3.090215   -0.527136   -0.386807
 O   -1.555897   -0.748550    1.282050
 C    2.900803   -0.892858   -0.720551
 H    1.114896   -1.350764   -1.844269
 H    1.711161    0.288211   -2.141923
 C    1.434607    1.008117    1.793788
 H    1.782754    1.822013   -0.211200
 H    0.147481    2.016006    0.380687
 H    2.738228   -1.601786    0.093313
 H    3.540478   -1.374766   -1.461741
 H    1.664807    1.931358    2.327497
 H    0.641848    0.490669    2.339097
 H   -3.237728   -0.538658   -1.381545
 H   -3.791497   -0.937675    0.206928
 H    3.446141   -0.034944   -0.325376
 H    2.322641    0.375693    1.815380
}
set optking {
  frozen_dihedral = ("
    1 2 3 4
    10 1 2 5
    13 5 2 1
    2 3 4 8
    3 4 8 20
  ")
}
set {
  geom_maxiter 400
  g_convergence GAU_LOOSE
  dynamic_level 1
}
memory 8.166666666666666GB
set_num_threads(2)
psi4_io.set_default_path("/scratch/bdw2292/Psi4-4_27_Index_0-farH_in17")
for _ in range(1):
  try:
    set opt_coordinates both
    optimize('wb97x-d/6-311G')
    break
  except OptimizationConvergenceError:
    break
  else:
    try:
      set opt_coordinates cartesian
      optimize('wb97x-d/6-311G')
      break
    except OptimizationConvergenceError:
      pass
clean()
--------------------------------------------------------------------------

    Molecular point group: c1
  Charge       = 0
  Multiplicity = 1
  Basis Set: 6-311G
    Blend: 6-311G
  Basis Set: (6-311G AUX)
    Blend: CC-PVTZ-JKFIT
  @DF-RKS Final Energy:  -421.63555626681875
    Total Energy =                       -421.6355562668186963
    Molecular point group: c1
  Basis Set: 6-311G
    Blend: 6-311G
  Basis Set: (6-311G AUX)
    Blend: CC-PVTZ-JKFIT
  Basis Set: 6-311G
    Blend: 6-311G
  Basis Set: (6-311G AUX)
    Blend: CC-PVTZ-JKFIT
  @DF-RKS Final Energy:  -421.63907837285024
    Total Energy =                       -421.6390783728502925
  Basis Set: 6-311G
    Blend: 6-311G
  Basis Set: (6-311G AUX)
    Blend: CC-PVTZ-JKFIT
  Basis Set: 6-311G
    Blend: 6-311G
  @DF-RKS Final Energy:  -421.63025998677995
    Total Energy =                       -421.6302599867798904
  @DF-RKS Final Energy:  -421.63983227309006
    Total Energy =                       -421.6398322730900077
  @DF-RKS Final Energy:  -421.63904788922343
    Total Energy =                       -421.6390478892234341
  @DF-RKS Final Energy:  -421.63983227383136
    Total Energy =                       -421.6398322738313027
  @DF-RKS Final Energy:  -421.64018256746846
    Total Energy =                       -421.6401825674684574
  @DF-RKS Final Energy:  -421.64047939873939
    Total Energy =                       -421.6404793987393873
  @DF-RKS Final Energy:  -421.64061151713247
    Total Energy =                       -421.6406115171324700
  Basis Set: (6-311G AUX)
    Blend: CC-PVTZ-JKFIT
  Basis Set: 6-311G
    Blend: 6-311G
  Basis Set: (6-311G AUX)
    Blend: CC-PVTZ-JKFIT
  @DF-RKS Final Energy:  -421.64061753613129
    Total Energy =                       -421.6406175361312307
  Basis Set: 6-311G
    Blend: 6-311G
  Basis Set: (6-311G AUX)
    Blend: CC-PVTZ-JKFIT
  Charge       = 0
  Multiplicity = 1
  Basis Set: 6-311G
    Blend: 6-311G
  Basis Set: (6-311G AUX)
    Blend: CC-PVTZ-JKFIT

    Orbital Energies [Eh]
    ---------------------

    Doubly Occupied:

       1A    -19.213771     2A    -14.456134     3A    -14.417819
       4A    -10.400114     5A    -10.328321     6A    -10.309868
       7A    -10.300387     8A    -10.265448     9A    -10.243488
      10A     -1.150262    11A     -1.025136    12A     -1.014687
      13A     -0.863666    14A     -0.851832    15A     -0.789384
      16A     -0.720469    17A     -0.696856    18A     -0.660319
      19A     -0.635103    20A     -0.583401    21A     -0.570728
      22A     -0.564923    23A     -0.534766    24A     -0.518986
      25A     -0.495717    26A     -0.486049    27A     -0.470313
      28A     -0.466025    29A     -0.457492    30A     -0.434636
      31A     -0.428319    32A     -0.418783    33A     -0.403668
      34A     -0.353757    35A     -0.335762    36A     -0.274719

  @DF-RKS Final Energy:  -421.64062123299055

   => Energetics <=

    Nuclear Repulsion Energy =            484.9745784006358349
    One-Electron Energy =               -1532.9621477176092412
    Two-Electron Energy =                 667.6647267870839642
    DFT Exchange-Correlation Energy =     -41.3028347785900465
    Empirical Dispersion Energy =          -0.0149439245111216
    VV10 Nonlocal Energy =                  0.0000000000000000
    Total Energy =                       -421.6406212329905543

  Dipole Moment: [D]
     X:    -1.7042      Y:    -0.6413      Z:    -3.8993     Total:     4.3035

    Molecular point group: c1
  Basis Set: 6-311G
    Blend: 6-311G
  Basis Set: (6-311G AUX)
    Blend: CC-PVTZ-JKFIT

  -Total Gradient:
     Atom            X                  Y                   Z
    ------   -----------------  -----------------  -----------------
       1       -0.000113363400     0.000160521115    -0.000344015098
       2        0.000399544233     0.000236491860     0.000516606795
       3       -0.000769964080     0.002461185773     0.000409393352
       4        0.001213429269    -0.005826318033    -0.000146678948
       5        0.000677555428     0.000260342936    -0.000629954367
       6       -0.000015149350     0.000041169772     0.000036610936
       7       -0.000068451419    -0.000012322476    -0.000020759113
       8       -0.001207414738     0.006482734207    -0.001283151025
       9        0.000103600769    -0.000018763808     0.000040011608
      10       -0.000097956436    -0.000363754305     0.000090366364
      11       -0.000039616696     0.000033501989     0.000002769915
      12       -0.000088683347     0.000070849552    -0.000043750836
      13       -0.000691480286     0.000096637259     0.000111345532
      14       -0.000022684016    -0.000050336143    -0.000025330541
      15        0.000040236909     0.000011844592     0.000032619979
      16        0.000021881251    -0.000066807771     0.000026939247
      17       -0.000032695541     0.000008276918    -0.000025109027
      18       -0.000008617817     0.000074328010     0.000011793674
      19       -0.000056309905    -0.000152888136     0.000080321530
      20        0.000487900885    -0.003661720074     0.000965196707
      21       -0.000048376475    -0.000019331394    -0.000016066942
      22       -0.000028492146    -0.000016314383    -0.000022910684
      23        0.000059548553    -0.000092621102    -0.000040648168

  **** Optimization is complete! (in 6 steps) ****
    Final optimized geometry and variables:
    Molecular point group: c1

    Geometry (in Angstrom), charge = 0, multiplicity = 1:

    C            1.584419996961    -0.519666394038    -1.330944839256
    N            0.568632642522     0.122950202534    -0.499948300051
    C           -0.807319127856    -0.041748428016    -0.896329164445
    C           -1.760080146682    -0.394500467624     0.244607563329
    C            0.931768443942     1.421057913776     0.080321203561
    H           -0.871861115987    -0.837391334576    -1.644465135881
    H           -1.219792958036     0.863187159003    -1.376027358224
    N           -3.036777271387    -0.677534126087    -0.163519095308
    O           -1.463432283819    -0.342710423208     1.444851926013
    C            2.841267029813    -0.888735443982    -0.545957537557
    H            1.151683779545    -1.434203175187    -1.741509188077
    H            1.867101523553     0.117501745321    -2.189008738378
    C            1.257501137195     1.365543963853     1.572696259307
    H            1.783772197406     1.833479300611    -0.477372897917
    H            0.099338138350     2.117681911878    -0.074230891818
    H            2.576361736079    -1.513697182826     0.307038495029
    H            3.542030702981    -1.432499405473    -1.183338422428
    H            1.470369138568     2.367737324792     1.955951204635
    H            0.412477710546     0.939999613477     2.109144022241
    H           -3.248293202397    -0.952635953331    -1.104648793263
    H           -3.719105081933    -0.873935788491     0.547028645309
    H            3.353126907844    -0.000729344914    -0.171680883312
    H            2.128217082468     0.734500631732     1.756416525239

*** Psi4 exiting successfully. Buy a developer a beer!
