                               Psi4 1.5 release

  ==> Input File <==

--------------------------------------------------------------------------
molecule {
0 1
 C    1.528562    0.156760   -1.543945
 N    0.645640    0.249731   -0.389149
 C   -0.567028   -0.549674   -0.413703
 C   -1.827967    0.301008   -0.673014
 C    0.878169    1.077226    0.781690
 H   -0.688246   -1.090765    0.545008
 H   -0.515199   -1.348932   -1.171130
 N   -3.004656   -0.392524   -0.569684
 O   -1.799564    1.495444   -0.978182
 C    2.894125   -0.437869   -1.162192
 H    1.061220   -0.442431   -2.343177
 H    1.634973    1.167385   -1.975340
 C    1.334431    0.245846    1.997485
 H    1.626089    1.845279    0.522602
 H   -0.046576    1.638086    1.003158
 H    2.779150   -1.383498   -0.629163
 H    3.507773   -0.616751   -2.046554
 H    1.488380    0.888700    2.864863
 H    0.593825   -0.504891    2.275469
 H   -3.036864   -1.253854   -0.050073
 H   -3.855192    0.137680   -0.662204
 H    3.445535    0.249534   -0.516422
 H    2.274831   -0.266177    1.785329
}
set optking {
  frozen_dihedral = ("
    1 2 3 4
    10 1 2 5
    13 5 2 1
    2 3 4 8
    3 4 8 20
  ")
}
set {
  geom_maxiter 400
  g_convergence GAU_LOOSE
  dynamic_level 1
}
memory 8.166666666666666GB
set_num_threads(2)
psi4_io.set_default_path("/scratch/bdw2292/Psi4-4_27_Index_0-farH_in17")
for _ in range(1):
  try:
    set opt_coordinates both
    optimize('wb97x-d/6-311G')
    break
  except OptimizationConvergenceError:
    break
  else:
    try:
      set opt_coordinates cartesian
      optimize('wb97x-d/6-311G')
      break
    except OptimizationConvergenceError:
      pass
clean()
--------------------------------------------------------------------------

    Molecular point group: c1
  Charge       = 0
  Multiplicity = 1
  Basis Set: 6-311G
    Blend: 6-311G
  Basis Set: (6-311G AUX)
    Blend: CC-PVTZ-JKFIT
  @DF-RKS Final Energy:  -421.63713389011377
    Total Energy =                       -421.6371338901137165
    Molecular point group: c1
  Basis Set: 6-311G
    Blend: 6-311G
  Basis Set: (6-311G AUX)
    Blend: CC-PVTZ-JKFIT
  Basis Set: 6-311G
    Blend: 6-311G
  Basis Set: (6-311G AUX)
    Blend: CC-PVTZ-JKFIT
  @DF-RKS Final Energy:  -421.54639776899415
    Total Energy =                       -421.5463977689940975
  Basis Set: 6-311G
    Blend: 6-311G
  Basis Set: (6-311G AUX)
    Blend: CC-PVTZ-JKFIT
  Basis Set: 6-311G
    Blend: 6-311G
  @DF-RKS Final Energy:  -421.62760917834765
    Total Energy =                       -421.6276091783475977
  @DF-RKS Final Energy:  -421.64076884051229
    Total Energy =                       -421.6407688405122940
  @DF-RKS Final Energy:  -421.64157128688464
    Total Energy =                       -421.6415712868845844
  @DF-RKS Final Energy:  -421.64171131508692
    Total Energy =                       -421.6417113150869795
  Basis Set: (6-311G AUX)
    Blend: CC-PVTZ-JKFIT
  Basis Set: 6-311G
    Blend: 6-311G
  Basis Set: (6-311G AUX)
    Blend: CC-PVTZ-JKFIT
  @DF-RKS Final Energy:  -421.64192556580252
    Total Energy =                       -421.6419255658024667
  Basis Set: 6-311G
    Blend: 6-311G
  Basis Set: (6-311G AUX)
    Blend: CC-PVTZ-JKFIT
  Charge       = 0
  Multiplicity = 1
  Basis Set: 6-311G
    Blend: 6-311G
  Basis Set: (6-311G AUX)
    Blend: CC-PVTZ-JKFIT

    Orbital Energies [Eh]
    ---------------------

    Doubly Occupied:

       1A    -19.211704     2A    -14.455600     3A    -14.410729
       4A    -10.396567     5A    -10.326908     6A    -10.305606
       7A    -10.299550     8A    -10.264980     9A    -10.262970
      10A     -1.147596    11A     -1.021075    12A     -1.013779
      13A     -0.861550    14A     -0.855881    15A     -0.790837
      16A     -0.725907    17A     -0.701723    18A     -0.660780
      19A     -0.628308    20A     -0.585068    21A     -0.573609
      22A     -0.564999    23A     -0.524400    24A     -0.516377
      25A     -0.504476    26A     -0.490890    27A     -0.474125
      28A     -0.468866    29A     -0.454201    30A     -0.446578
      31A     -0.431940    32A     -0.420072    33A     -0.412580
      34A     -0.352709    35A     -0.336386    36A     -0.265064

  @DF-RKS Final Energy:  -421.64194576327986

   => Energetics <=

    Nuclear Repulsion Energy =            483.0741204889467895
    One-Electron Energy =               -1529.1140527430461589
    Two-Electron Energy =                 665.7205861969879379
    DFT Exchange-Correlation Energy =     -41.3076708148563014
    Empirical Dispersion Energy =          -0.0149288913121317
    VV10 Nonlocal Energy =                  0.0000000000000000
    Total Energy =                       -421.6419457632798071

  Dipole Moment: [D]
     X:     0.3958      Y:    -3.4114      Z:     1.1236     Total:     3.6134

    Molecular point group: c1
  Basis Set: 6-311G
    Blend: 6-311G
  Basis Set: (6-311G AUX)
    Blend: CC-PVTZ-JKFIT

  -Total Gradient:
     Atom            X                  Y                   Z
    ------   -----------------  -----------------  -----------------
       1        0.002747418812    -0.002570013377     0.001117651971
       2       -0.004875830952     0.003468733979    -0.001473798504
       3        0.001236942717    -0.001690056458    -0.004789110367
       4        0.000577615180     0.001555372941     0.008881185466
       5        0.000676209797    -0.000647528137    -0.000106318356
       6        0.000038169995    -0.000086169241     0.000051732155
       7        0.000056720361    -0.000209486001    -0.000125264435
       8        0.000679648269    -0.002855906516    -0.007012769981
       9       -0.000246346647     0.000717909826    -0.000276475620
      10       -0.000069571379     0.000766474496     0.000020667788
      11       -0.000144637239    -0.000121104789    -0.000078560017
      12       -0.000026824497     0.000052516260    -0.000012958981
      13        0.000049445950     0.000387167911    -0.000132456840
      14        0.000057013733     0.000124701724    -0.000017631962
      15       -0.000257715793     0.000067219329     0.000105273936
      16        0.000250105575    -0.000223322733     0.000053102069
      17        0.000070791404    -0.000079757711    -0.000052413607
      18       -0.000015481958    -0.000013331949     0.000076708553
      19        0.000012599741    -0.000227211578     0.000142360160
      20       -0.000580103207     0.001453162271     0.003577234637
      21       -0.000176443256     0.000136940377    -0.000024377223
      22        0.000025220128     0.000049978243     0.000072939869
      23        0.000129381797    -0.000077567726    -0.000013508073

  **** Optimization is complete! (in 8 steps) ****
    Final optimized geometry and variables:
    Molecular point group: c1

    Geometry (in Angstrom), charge = 0, multiplicity = 1:

    C            1.225667007744     0.354378969205    -1.493605722793
    N            0.589084051684     0.117129572402    -0.209892149674
    C           -0.312716983956    -0.972311302230    -0.012012002184
    C           -1.790162556480    -0.561263280569     0.070882334321
    C            0.748026009185     1.090334610327     0.858577479713
    H           -0.068810544640    -1.541212555775     0.900369427559
    H           -0.221787671865    -1.681299815640    -0.838643960816
    N           -2.648387953226    -1.576896951868     0.393987570352
    O           -2.196698805715     0.573371752097    -0.217394566239
    C            2.755957498951     0.380530327116    -1.428342043746
    H            0.905176278345    -0.434968092301    -2.177454807587
    H            0.868960282861     1.299288503014    -1.928347524257
    C            1.721023729467     0.649390464548     1.959669947705
    H            1.095734799140     2.026448530871     0.413127619040
    H           -0.230597619392     1.316231081928     1.294307437744
    H            3.138593724691    -0.561701518060    -1.030646377203
    H            3.181622172059     0.540773290529    -2.422021401869
    H            1.779410286345     1.400536731064     2.751582349320
    H            1.395572196102    -0.289883627815     2.414944413687
    H           -2.333841189574    -2.411016278364     0.854622527136
    H           -3.630672208055    -1.366803183604     0.422474940276
    H            3.106500013261     1.188013373282    -0.782042246558
    H            2.721586643630     0.493249367980     1.553834084277

*** Psi4 exiting successfully. Buy a developer a beer!
