                               Psi4 1.5 release

  ==> Input File <==

--------------------------------------------------------------------------
molecule {
0 1
 C    1.225667    0.354379   -1.493606
 N    0.589084    0.117130   -0.209892
 C   -0.312717   -0.972311   -0.012012
 C   -1.790163   -0.561263    0.070882
 C    0.748026    1.090335    0.858577
 H   -0.068811   -1.541213    0.900369
 H   -0.221788   -1.681300   -0.838644
 N   -2.648388   -1.576897    0.393988
 O   -2.196699    0.573372   -0.217395
 C    2.755957    0.380530   -1.428342
 H    0.905176   -0.434968   -2.177455
 H    0.868960    1.299289   -1.928348
 C    1.721024    0.649390    1.959670
 H    1.095735    2.026449    0.413128
 H   -0.230598    1.316231    1.294307
 H    3.138594   -0.561702   -1.030646
 H    3.181622    0.540773   -2.422021
 H    1.779410    1.400537    2.751582
 H    1.395572   -0.289884    2.414944
 H   -2.333841   -2.411016    0.854623
 H   -3.630672   -1.366803    0.422475
 H    3.106500    1.188013   -0.782042
 H    2.721587    0.493249    1.553834
}
memory 8.166666666666666GB
set_num_threads(2)
psi4_io.set_default_path("/scratch/bdw2292/Psi4-4_27_Index_0-farH_in17")
set freeze_core True
E, wfn = energy('wb97x-d/6-311+G*',return_wfn=True)
oeprop(wfn,"WIBERG_LOWDIN_INDICES")
clean()
--------------------------------------------------------------------------

    Molecular point group: c1

    Geometry (in Angstrom), charge = 0, multiplicity = 1:

       Center              X                  Y                   Z               Mass
    ------------   -----------------  -----------------  -----------------  -----------------
         C            1.225667108502     0.354378915421    -1.493605913717    12.000000000000
         N            0.589084108502     0.117129915421    -0.209891913717    14.003074004430
         C           -0.312716891498    -0.972311084579    -0.012011913717    12.000000000000
         C           -1.790162891498    -0.561263084579     0.070882086283    12.000000000000
         C            0.748026108502     1.090334915421     0.858577086283    12.000000000000
         H           -0.068810891498    -1.541213084579     0.900369086283     1.007825032230
         H           -0.221787891498    -1.681300084579    -0.838643913717     1.007825032230
         N           -2.648387891498    -1.576897084579     0.393988086283    14.003074004430
         O           -2.196698891498     0.573371915421    -0.217394913717    15.994914619570
         C            2.755957108502     0.380529915421    -1.428341913717    12.000000000000
         H            0.905176108502    -0.434968084579    -2.177454913717     1.007825032230
         H            0.868960108502     1.299288915421    -1.928347913717     1.007825032230
         C            1.721024108502     0.649389915421     1.959670086283    12.000000000000
         H            1.095735108502     2.026448915421     0.413128086283     1.007825032230
         H           -0.230597891498     1.316230915421     1.294307086283     1.007825032230
         H            3.138594108502    -0.561702084579    -1.030645913717     1.007825032230
         H            3.181622108502     0.540772915421    -2.422020913717     1.007825032230
         H            1.779410108502     1.400536915421     2.751582086283     1.007825032230
         H            1.395572108502    -0.289884084579     2.414944086283     1.007825032230
         H           -2.333840891498    -2.411016084579     0.854623086283     1.007825032230
         H           -3.630671891498    -1.366803084579     0.422475086283     1.007825032230
         H            3.106500108502     1.188012915421    -0.782041913717     1.007825032230
         H            2.721587108502     0.493248915421     1.553834086283     1.007825032230

  Charge       = 0
  Multiplicity = 1
  Basis Set: 6-311+G*
    Blend: 6-311+G*
  Basis Set: (6-311+G* AUX)
    Blend: HEAVY-AUG-CC-PVTZ-JKFIT

    Orbital Energies [Eh]
    ---------------------

    Doubly Occupied:

       1A    -19.212433     2A    -14.458259     3A    -14.412150
       4A    -10.390074     5A    -10.324619     6A    -10.304491
       7A    -10.298730     8A    -10.265103     9A    -10.263356
      10A     -1.131611    11A     -1.019870    12A     -1.011703
      13A     -0.858993    14A     -0.853466    15A     -0.789210
      16A     -0.723666    17A     -0.700275    18A     -0.659444
      19A     -0.628342    20A     -0.583874    21A     -0.572561
      22A     -0.563797    23A     -0.525412    24A     -0.515393
      25A     -0.504805    26A     -0.495471    27A     -0.475453
      28A     -0.469154    29A     -0.454970    30A     -0.446427
      31A     -0.432983    32A     -0.421325    33A     -0.414231
      34A     -0.359681    35A     -0.342117    36A     -0.271938

  @DF-RKS Final Energy:  -421.76730779350527

   => Energetics <=

    Nuclear Repulsion Energy =            483.0741039134665584
    One-Electron Energy =               -1529.3763790748762403
    Two-Electron Energy =                 665.8632205009614609
    DFT Exchange-Correlation Energy =     -41.3133242413306334
    Empirical Dispersion Energy =          -0.0149288917264712
    VV10 Nonlocal Energy =                  0.0000000000000000
    Total Energy =                       -421.7673077935052675

  Dipole Moment: [D]
     X:     0.4649      Y:    -3.3433      Z:     1.0709     Total:     3.5413

*** Psi4 exiting successfully. Buy a developer a beer!
