                               Psi4 1.5 release

  ==> Input File <==

--------------------------------------------------------------------------
molecule {
0 1
 C    1.199345   -0.428765   -0.904329
 N    0.492014   -0.347400    0.384642
 C   -0.947417   -0.514939    0.371500
 C   -1.758152    0.256202   -0.673006
 C    1.003776    0.689074    1.298613
 H   -1.333609   -0.292516    1.369399
 H   -1.182715   -1.572797    0.192304
 N   -3.114374    0.135108   -0.529719
 O   -1.262924    0.884413   -1.620976
 C    2.659464   -0.842412   -0.736955
 H    0.682970   -1.173216   -1.514414
 H    1.136435    0.517254   -1.450744
 C    1.828075    0.108971    2.447845
 H    1.606976    1.409190    0.732635
 H    0.165984    1.264099    1.706321
 H    2.731949   -1.774984   -0.174901
 H    3.121496   -0.985410   -1.716331
 H    2.185421    0.900326    3.112458
 H    1.223494   -0.587764    3.031727
 H   -3.538202   -0.138938    0.337178
 H   -3.696615    0.581888   -1.216086
 H    3.237205   -0.079603   -0.210905
 H    2.688918   -0.439880    2.067196
}
memory 8.166666666666666GB
set_num_threads(2)
psi4_io.set_default_path("/scratch/bdw2292/Psi4-4_27_Index_0-farH_in17")
set freeze_core True
E, wfn = energy('wb97x-d/6-311+G*',return_wfn=True)
oeprop(wfn,"WIBERG_LOWDIN_INDICES")
clean()
--------------------------------------------------------------------------

    Molecular point group: c1

    Geometry (in Angstrom), charge = 0, multiplicity = 1:

       Center              X                  Y                   Z               Mass
    ------------   -----------------  -----------------  -----------------  -----------------
         C            1.199345045722    -0.428765208391    -0.904328897693    12.000000000000
         N            0.492014045722    -0.347400208391     0.384642102307    14.003074004430
         C           -0.947416954278    -0.514939208391     0.371500102307    12.000000000000
         C           -1.758151954278     0.256201791609    -0.673005897693    12.000000000000
         C            1.003776045722     0.689073791609     1.298613102307    12.000000000000
         H           -1.333608954278    -0.292516208391     1.369399102307     1.007825032230
         H           -1.182714954278    -1.572797208391     0.192304102307     1.007825032230
         N           -3.114373954278     0.135107791609    -0.529718897693    14.003074004430
         O           -1.262923954278     0.884412791609    -1.620975897693    15.994914619570
         C            2.659464045722    -0.842412208391    -0.736954897693    12.000000000000
         H            0.682970045722    -1.173216208391    -1.514413897693     1.007825032230
         H            1.136435045722     0.517253791609    -1.450743897693     1.007825032230
         C            1.828075045722     0.108970791609     2.447845102307    12.000000000000
         H            1.606976045722     1.409189791609     0.732635102307     1.007825032230
         H            0.165984045722     1.264098791609     1.706321102307     1.007825032230
         H            2.731949045722    -1.774984208391    -0.174900897693     1.007825032230
         H            3.121496045722    -0.985410208391    -1.716330897693     1.007825032230
         H            2.185421045722     0.900325791609     3.112458102307     1.007825032230
         H            1.223494045722    -0.587764208391     3.031727102307     1.007825032230
         H           -3.538201954278    -0.138938208391     0.337178102307     1.007825032230
         H           -3.696614954278     0.581887791609    -1.216085897693     1.007825032230
         H            3.237205045722    -0.079603208391    -0.210904897693     1.007825032230
         H            2.688918045722    -0.439880208391     2.067196102307     1.007825032230

  Charge       = 0
  Multiplicity = 1
  Basis Set: 6-311+G*
    Blend: 6-311+G*
  Basis Set: (6-311+G* AUX)
    Blend: HEAVY-AUG-CC-PVTZ-JKFIT

    Orbital Energies [Eh]
    ---------------------

    Doubly Occupied:

       1A    -19.215743     2A    -14.460033     3A    -14.418501
       4A    -10.395508     5A    -10.324485     6A    -10.302937
       7A    -10.291989     8A    -10.263220     9A    -10.260187
      10A     -1.135575    11A     -1.016969    12A     -1.013614
      13A     -0.856571    14A     -0.852503    15A     -0.788271
      16A     -0.718142    17A     -0.698254    18A     -0.663018
      19A     -0.630469    20A     -0.580576    21A     -0.570671
      22A     -0.559531    23A     -0.529201    24A     -0.521018
      25A     -0.501583    26A     -0.495700    27A     -0.472373
      28A     -0.464944    29A     -0.455305    30A     -0.438468
      31A     -0.427850    32A     -0.418173    33A     -0.408438
      34A     -0.362757    35A     -0.349821    36A     -0.280549

  @DF-RKS Final Energy:  -421.76731912909253

   => Energetics <=

    Nuclear Repulsion Energy =            482.9106976638084916
    One-Electron Energy =               -1529.0777950360245541
    Two-Electron Energy =                 665.7225889534846601
    DFT Exchange-Correlation Energy =     -41.3078737711306303
    Empirical Dispersion Energy =          -0.0149369392303928
    VV10 Nonlocal Energy =                  0.0000000000000000
    Total Energy =                       -421.7673191290925274

  Dipole Moment: [D]
     X:    -2.4362      Y:    -0.8022      Z:     2.3234     Total:     3.4607

*** Psi4 exiting successfully. Buy a developer a beer!
