                               Psi4 1.5 release

  ==> Input File <==

--------------------------------------------------------------------------
molecule {
0 1
 C    1.282611   -0.449961   -1.070061
 N    0.557406   -0.400379    0.201735
 C   -0.821034   -0.814714    0.177532
 C   -1.792147    0.199705   -0.435036
 C    0.882660    0.708954    1.105766
 H   -1.148622   -1.048322    1.197621
 H   -0.912099   -1.743500   -0.392675
 N   -3.115070   -0.131802   -0.343858
 O   -1.410479    1.212645   -1.042034
 C    2.782282   -0.661962   -0.880417
 H    0.877019   -1.286974   -1.644301
 H    1.102648    0.458518   -1.660767
 C    1.741962    0.269859    2.292129
 H    1.391297    1.497241    0.541068
 H   -0.042557    1.165554    1.469919
 H    2.965815   -1.557868   -0.285809
 H    3.274385   -0.773713   -1.848940
 H    1.953340    1.112377    2.956265
 H    1.226317   -0.502075    2.867024
 H   -3.451634   -0.789488    0.334798
 H   -3.783482    0.486931   -0.768287
 H    3.244979    0.186620   -0.372506
 H    2.688799   -0.148814    1.951048
}
memory 8.166666666666666GB
set_num_threads(2)
psi4_io.set_default_path("/scratch/bdw2292/Psi4-4_27_Index_0-farH_in17")
set freeze_core True
E, wfn = energy('wb97x-d/6-311+G*',return_wfn=True)
oeprop(wfn,"WIBERG_LOWDIN_INDICES")
clean()
--------------------------------------------------------------------------

    Molecular point group: c1

    Geometry (in Angstrom), charge = 0, multiplicity = 1:

       Center              X                  Y                   Z               Mass
    ------------   -----------------  -----------------  -----------------  -----------------
         C            1.282610916160    -0.449961070924    -1.070061044396    12.000000000000
         N            0.557405916160    -0.400379070924     0.201734955604    14.003074004430
         C           -0.821034083840    -0.814714070924     0.177531955604    12.000000000000
         C           -1.792147083840     0.199704929076    -0.435036044396    12.000000000000
         C            0.882659916160     0.708953929076     1.105765955604    12.000000000000
         H           -1.148622083840    -1.048322070924     1.197620955604     1.007825032230
         H           -0.912099083840    -1.743500070924    -0.392675044396     1.007825032230
         N           -3.115070083840    -0.131802070924    -0.343858044396    14.003074004430
         O           -1.410479083840     1.212644929076    -1.042034044396    15.994914619570
         C            2.782281916160    -0.661962070924    -0.880417044396    12.000000000000
         H            0.877018916160    -1.286974070924    -1.644301044396     1.007825032230
         H            1.102647916160     0.458517929076    -1.660767044396     1.007825032230
         C            1.741961916160     0.269858929076     2.292128955604    12.000000000000
         H            1.391296916160     1.497240929076     0.541067955604     1.007825032230
         H           -0.042557083840     1.165553929076     1.469918955604     1.007825032230
         H            2.965814916160    -1.557868070924    -0.285809044396     1.007825032230
         H            3.274384916160    -0.773713070924    -1.848940044396     1.007825032230
         H            1.953339916160     1.112376929076     2.956264955604     1.007825032230
         H            1.226316916160    -0.502075070924     2.867023955604     1.007825032230
         H           -3.451634083840    -0.789488070924     0.334797955604     1.007825032230
         H           -3.783482083840     0.486930929076    -0.768287044396     1.007825032230
         H            3.244978916160     0.186619929076    -0.372506044396     1.007825032230
         H            2.688798916160    -0.148814070924     1.951047955604     1.007825032230

  Charge       = 0
  Multiplicity = 1
  Basis Set: 6-311+G*
    Blend: 6-311+G*
  Basis Set: (6-311+G* AUX)
    Blend: HEAVY-AUG-CC-PVTZ-JKFIT

    Orbital Energies [Eh]
    ---------------------

    Doubly Occupied:

       1A    -19.215136     2A    -14.460629     3A    -14.415623
       4A    -10.392734     5A    -10.322956     6A    -10.299035
       7A    -10.296717     8A    -10.262451     9A    -10.261019
      10A     -1.134250    11A     -1.018179    12A     -1.014325
      13A     -0.855842    14A     -0.853413    15A     -0.786549
      16A     -0.719863    17A     -0.697823    18A     -0.661249
      19A     -0.631200    20A     -0.577628    21A     -0.576829
      22A     -0.559522    23A     -0.528828    24A     -0.520330
      25A     -0.501341    26A     -0.495535    27A     -0.469375
      28A     -0.463917    29A     -0.455785    30A     -0.440360
      31A     -0.427829    32A     -0.418967    33A     -0.410108
      34A     -0.362220    35A     -0.347742    36A     -0.279971

  @DF-RKS Final Energy:  -421.77209450581074

   => Energetics <=

    Nuclear Repulsion Energy =            485.1890074251339229
    One-Electron Energy =               -1533.6567607763618071
    Two-Electron Energy =                 668.0219174352067739
    DFT Exchange-Correlation Energy =     -41.3111088094388776
    Empirical Dispersion Energy =          -0.0151497803507445
    VV10 Nonlocal Energy =                  0.0000000000000000
    Total Energy =                       -421.7720945058107418

  Dipole Moment: [D]
     X:    -2.1611      Y:    -2.1591      Z:     1.5100     Total:     3.4077

*** Psi4 exiting successfully. Buy a developer a beer!
