                               Psi4 1.5 release

  ==> Input File <==

--------------------------------------------------------------------------
molecule {
0 1
 C    1.381675   -0.173616   -1.385382
 N    0.639913   -0.330886   -0.106618
 C   -0.758155   -0.730580   -0.318913
 C   -1.728279    0.380523   -0.812404
 C    0.792319    0.755851    0.904060
 H   -1.156178   -1.145332    0.624538
 H   -0.813055   -1.577589   -1.024663
 N   -3.038350   -0.023111   -0.864253
 O   -1.379102    1.505758   -1.173439
 C    2.908748   -0.177885   -1.185282
 H    1.104445   -0.996614   -2.065496
 H    1.045663    0.758324   -1.871992
 C    1.710527    0.306479    2.052099
 H    1.175949    1.662621    0.408703
 H   -0.189416    1.054365    1.306930
 H    3.227664   -1.073594   -0.649685
 H    3.419854   -0.163840   -2.149294
 H    1.839230    1.109723    2.779209
 H    1.290066   -0.555419    2.572720
 H   -3.341520   -0.813771   -0.321721
 H   -3.720583    0.668676   -1.126719
 H    3.241314    0.697242   -0.625508
 H    2.698681    0.027989    1.684781
}
set optking {
  frozen_dihedral = ("
    1 2 3 4
    10 1 2 5
    13 5 2 1
    2 3 4 8
    3 4 8 20
  ")
}
set {
  geom_maxiter 400
  g_convergence GAU_LOOSE
  dynamic_level 1
}
memory 8.166666666666666GB
set_num_threads(2)
psi4_io.set_default_path("/scratch/bdw2292/Psi4-4_27_Index_0-farH_in17")
for _ in range(1):
  try:
    set opt_coordinates both
    optimize('wb97x-d/6-311G')
    break
  except OptimizationConvergenceError:
    break
  else:
    try:
      set opt_coordinates cartesian
      optimize('wb97x-d/6-311G')
      break
    except OptimizationConvergenceError:
      pass
clean()
--------------------------------------------------------------------------

    Molecular point group: c1
  Charge       = 0
  Multiplicity = 1
  Basis Set: 6-311G
    Blend: 6-311G
  Basis Set: (6-311G AUX)
    Blend: CC-PVTZ-JKFIT
  @DF-RKS Final Energy:  -421.64161421554979
    Total Energy =                       -421.6416142155498505
    Molecular point group: c1
  Basis Set: 6-311G
    Blend: 6-311G
  Basis Set: (6-311G AUX)
    Blend: CC-PVTZ-JKFIT
  Basis Set: 6-311G
    Blend: 6-311G
  Basis Set: (6-311G AUX)
    Blend: CC-PVTZ-JKFIT
  @DF-RKS Final Energy:  -421.60868758986720
    Total Energy =                       -421.6086875898672020
  Basis Set: 6-311G
    Blend: 6-311G
  Basis Set: (6-311G AUX)
    Blend: CC-PVTZ-JKFIT
  Basis Set: 6-311G
    Blend: 6-311G
  @DF-RKS Final Energy:  -421.63723799721657
    Total Energy =                       -421.6372379972166300
  @DF-RKS Final Energy:  -421.64495177760580
    Total Energy =                       -421.6449517776057974
  @DF-RKS Final Energy:  -421.64544457221547
    Total Energy =                       -421.6454445722154674
  @DF-RKS Final Energy:  -421.64523147713061
    Total Energy =                       -421.6452314771306078
  @DF-RKS Final Energy:  -421.64544456922391
    Total Energy =                       -421.6454445692239688
  @DF-RKS Final Energy:  -421.64550503570945
    Total Energy =                       -421.6455050357094478
  @DF-RKS Final Energy:  -421.64553895376332
    Total Energy =                       -421.6455389537633209
  Basis Set: (6-311G AUX)
    Blend: CC-PVTZ-JKFIT
  Basis Set: 6-311G
    Blend: 6-311G
  Basis Set: (6-311G AUX)
    Blend: CC-PVTZ-JKFIT
  @DF-RKS Final Energy:  -421.64554799463639
    Total Energy =                       -421.6455479946363880
  Basis Set: 6-311G
    Blend: 6-311G
  Basis Set: (6-311G AUX)
    Blend: CC-PVTZ-JKFIT
  Charge       = 0
  Multiplicity = 1
  Basis Set: 6-311G
    Blend: 6-311G
  Basis Set: (6-311G AUX)
    Blend: CC-PVTZ-JKFIT

    Orbital Energies [Eh]
    ---------------------

    Doubly Occupied:

       1A    -19.215921     2A    -14.458976     3A    -14.414424
       4A    -10.400289     5A    -10.325729     6A    -10.300124
       7A    -10.297429     8A    -10.261935     9A    -10.260182
      10A     -1.151425    11A     -1.021183    12A     -1.017259
      13A     -0.858655    14A     -0.855286    15A     -0.788533
      16A     -0.721977    17A     -0.699632    18A     -0.662777
      19A     -0.631637    20A     -0.578763    21A     -0.578411
      22A     -0.560821    23A     -0.527935    24A     -0.521641
      25A     -0.499367    26A     -0.492170    27A     -0.468858
      28A     -0.463306    29A     -0.455057    30A     -0.440373
      31A     -0.426421    32A     -0.417515    33A     -0.408520
      34A     -0.356286    35A     -0.343295    36A     -0.271361

  @DF-RKS Final Energy:  -421.64555070515468

   => Energetics <=

    Nuclear Repulsion Energy =            485.1889623828877802
    One-Electron Energy =               -1533.3736309694118063
    Two-Electron Energy =                 667.8595220635638725
    DFT Exchange-Correlation Energy =     -41.3052544013530394
    Empirical Dispersion Energy =          -0.0151497808414970
    VV10 Nonlocal Energy =                  0.0000000000000000
    Total Energy =                       -421.6455507051546192

  Dipole Moment: [D]
     X:    -2.3421      Y:    -2.1142      Z:     1.5173     Total:     3.5011

    Molecular point group: c1
  Basis Set: 6-311G
    Blend: 6-311G
  Basis Set: (6-311G AUX)
    Blend: CC-PVTZ-JKFIT

  -Total Gradient:
     Atom            X                  Y                   Z
    ------   -----------------  -----------------  -----------------
       1        0.000883362806    -0.001196489021     0.000612314746
       2       -0.000878259548     0.001988413040    -0.000864543638
       3        0.000454172457    -0.001838458095    -0.003061272776
       4       -0.000678942932     0.003071158191     0.005052963812
       5       -0.001067372612    -0.000400746089     0.000980872935
       6        0.000061683517    -0.000015832394     0.000021901141
       7        0.000030825986    -0.000004300038     0.000038544652
       8        0.000959442865    -0.004777712636    -0.004756810002
       9        0.000070544342     0.000025888113     0.000019404260
      10       -0.000035095580    -0.000129589579     0.000078663181
      11       -0.000046422888    -0.000032807324    -0.000034121080
      12       -0.000036757069    -0.000040754407     0.000123039834
      13        0.000884935212     0.000214496523    -0.000608259559
      14       -0.000022728233    -0.000067374990    -0.000012889137
      15       -0.000002596570     0.000040043251     0.000018315851
      16       -0.000007642082     0.000023532829     0.000004127075
      17       -0.000034307956    -0.000006596466     0.000024022877
      18       -0.000002093399    -0.000002477667    -0.000023242007
      19       -0.000002126918     0.000036141807     0.000006100801
      20       -0.000568567527     0.003035366299     0.002678869854
      21        0.000007628352    -0.000030299818     0.000034386481
      22        0.000025585255    -0.000001698262    -0.000022868207
      23        0.000028535060     0.000010110468     0.000010637847

  **** Optimization is complete! (in 5 steps) ****
    Final optimized geometry and variables:
    Molecular point group: c1

    Geometry (in Angstrom), charge = 0, multiplicity = 1:

    C            1.282611223005    -0.449961352047    -1.070060729275
    N            0.557405877623    -0.400378819012     0.201735206622
    C           -0.821034290048    -0.814714090228     0.177531975900
    C           -1.792147245534     0.199704584377    -0.435036287449
    C            0.882660453500     0.708954269965     1.105765606724
    H           -1.148621647542    -1.048321745288     1.197621408494
    H           -0.912099477565    -1.743500351788    -0.392674590001
    N           -3.115070303427    -0.131802428766    -0.343858440995
    O           -1.410479141898     1.212645477928    -1.042034430530
    C            2.782281981612    -0.661962233819    -0.880416766995
    H            0.877018808751    -1.286973811579    -1.644300931563
    H            1.102647730550     0.458518340484    -1.660767169216
    C            1.741961680824     0.269858642859     2.292129455437
    H            1.391296933951     1.497241008086     0.541067827295
    H           -0.042556502761     1.165553638162     1.469919410816
    H            2.965814744560    -1.557867533244    -0.285809149625
    H            3.274385493761    -0.773713484408    -1.848939786151
    H            1.953339550924     1.112377472662     2.956264782407
    H            1.226317205142    -0.502075363338     2.867024480401
    H           -3.451633906849    -0.789488380432     0.334798040461
    H           -3.783482475625     0.486931192105    -0.768286708562
    H            3.244978850227     0.186620466307    -0.372505924875
    H            2.688799378357    -0.148813709554     1.951047639420

*** Psi4 exiting successfully. Buy a developer a beer!
