                               Psi4 1.5 release

  ==> Input File <==

--------------------------------------------------------------------------
molecule {
0 1
 C    1.624730   -0.394499   -1.382664
 N    0.621561   -0.242089   -0.272665
 C   -0.769676   -0.332517   -0.810400
 C   -1.996796    0.086142    0.060521
 C    0.869528    1.022990    0.525258
 H   -0.943393   -1.376576   -1.127196
 H   -0.842399    0.259397   -1.741127
 N   -3.199663   -0.181711   -0.546553
 O   -1.944305    0.572122    1.191347
 C    3.073122   -0.573781   -0.881879
 H    1.341702   -1.282643   -1.973267
 H    1.549789    0.467015   -2.069029
 C    1.503448    0.703994    1.890070
 H    1.499958    1.724835   -0.045483
 H   -0.062397    1.577444    0.689831
 H    3.134740   -1.382989   -0.152303
 H    3.736499   -0.821850   -1.712068
 H    1.708713    1.621535    2.443845
 H    0.825113    0.097093    2.492580
 H   -3.244322   -0.866366   -1.282160
 H   -4.031497   -0.009019   -0.006511
 H    3.455400    0.337236   -0.420650
 H    2.441554    0.159548    1.782173
}
set optking {
  frozen_dihedral = ("
    1 2 3 4
    10 1 2 5
    13 5 2 1
    2 3 4 8
    3 4 8 20
  ")
}
set {
  geom_maxiter 400
  g_convergence GAU_LOOSE
  dynamic_level 1
}
memory 8.166666666666666GB
set_num_threads(2)
psi4_io.set_default_path("/scratch/bdw2292/Psi4-4_27_Index_0-farH_in17")
for _ in range(1):
  try:
    set opt_coordinates both
    optimize('wb97x-d/6-311G')
    break
  except OptimizationConvergenceError:
    break
  else:
    try:
      set opt_coordinates cartesian
      optimize('wb97x-d/6-311G')
      break
    except OptimizationConvergenceError:
      pass
clean()
--------------------------------------------------------------------------

    Molecular point group: c1
  Charge       = 0
  Multiplicity = 1
  Basis Set: 6-311G
    Blend: 6-311G
  Basis Set: (6-311G AUX)
    Blend: CC-PVTZ-JKFIT
  @DF-RKS Final Energy:  -421.62903694170086
    Total Energy =                       -421.6290369417008606
    Molecular point group: c1
  Basis Set: 6-311G
    Blend: 6-311G
  Basis Set: (6-311G AUX)
    Blend: CC-PVTZ-JKFIT
  Basis Set: 6-311G
    Blend: 6-311G
  Basis Set: (6-311G AUX)
    Blend: CC-PVTZ-JKFIT
  @DF-RKS Final Energy:  -421.63065248594199
    Total Energy =                       -421.6306524859420506
  Basis Set: 6-311G
    Blend: 6-311G
  Basis Set: (6-311G AUX)
    Blend: CC-PVTZ-JKFIT
  Basis Set: 6-311G
    Blend: 6-311G
  @DF-RKS Final Energy:  -421.63432234788041
    Total Energy =                       -421.6343223478803566
  @DF-RKS Final Energy:  -421.63444376605622
    Total Energy =                       -421.6344437660562221
  Basis Set: (6-311G AUX)
    Blend: CC-PVTZ-JKFIT
  Basis Set: 6-311G
    Blend: 6-311G
  Basis Set: (6-311G AUX)
    Blend: CC-PVTZ-JKFIT
  @DF-RKS Final Energy:  -421.63453358737206
    Total Energy =                       -421.6345335873720614
  Basis Set: 6-311G
    Blend: 6-311G
  Basis Set: (6-311G AUX)
    Blend: CC-PVTZ-JKFIT
  Charge       = 0
  Multiplicity = 1
  Basis Set: 6-311G
    Blend: 6-311G
  Basis Set: (6-311G AUX)
    Blend: CC-PVTZ-JKFIT

    Orbital Energies [Eh]
    ---------------------

    Doubly Occupied:

       1A    -19.222710     2A    -14.461633     3A    -14.422658
       4A    -10.413877     5A    -10.330771     6A    -10.308733
       7A    -10.287874     8A    -10.268323     9A    -10.248259
      10A     -1.159992    11A     -1.025654    12A     -1.020181
      13A     -0.863376    14A     -0.850369    15A     -0.794240
      16A     -0.718156    17A     -0.698211    18A     -0.666506
      19A     -0.633887    20A     -0.584297    21A     -0.573108
      22A     -0.558714    23A     -0.538190    24A     -0.526808
      25A     -0.497632    26A     -0.483106    27A     -0.475755
      28A     -0.464647    29A     -0.450905    30A     -0.444650
      31A     -0.428721    32A     -0.416917    33A     -0.403649
      34A     -0.360657    35A     -0.338229    36A     -0.281921

  @DF-RKS Final Energy:  -421.63456433378309

   => Energetics <=

    Nuclear Repulsion Energy =            483.1003870812007790
    One-Electron Energy =               -1529.0398620887710877
    Two-Electron Energy =                 665.6183088792446370
    DFT Exchange-Correlation Energy =     -41.2986007542487243
    Empirical Dispersion Energy =          -0.0147974512086949
    VV10 Nonlocal Energy =                  0.0000000000000000
    Total Energy =                       -421.6345643337830893

  Dipole Moment: [D]
     X:    -1.4624      Y:    -2.0977      Z:    -3.2469     Total:     4.1330

    Molecular point group: c1
  Basis Set: 6-311G
    Blend: 6-311G
  Basis Set: (6-311G AUX)
    Blend: CC-PVTZ-JKFIT

  -Total Gradient:
     Atom            X                  Y                   Z
    ------   -----------------  -----------------  -----------------
       1        0.000542879532     0.007175964043    -0.001803679677
       2        0.000318818511    -0.006009347055     0.000290987922
       3       -0.000792160609    -0.005475866537     0.003461648472
       4        0.000120536912     0.002903180681    -0.001296618750
       5       -0.001897864336     0.000198895798     0.000784047330
       6        0.000182557406     0.000221202937     0.000038762090
       7       -0.000015705822    -0.000021944306    -0.000027151946
       8        0.000617393323     0.003754596320    -0.004881291975
       9       -0.000062720905     0.000343771550     0.000397659319
      10       -0.000146762213    -0.000469472036     0.000185409238
      11        0.000069972002     0.000053070391     0.000045096833
      12       -0.000053323052    -0.000034666247     0.000003804096
      13        0.001541370919     0.000015576118    -0.000699586258
      14       -0.000145021271    -0.000187725596     0.000005709861
      15       -0.000084923119    -0.000001312490     0.000038606654
      16        0.000065647832     0.000016930836     0.000026693841
      17        0.000032273321     0.000032276287    -0.000005614960
      18        0.000039160013    -0.000057030957     0.000040596348
      19        0.000020023444     0.000009711767    -0.000039706938
      20       -0.000610205640    -0.002447430392     0.003270558821
      21       -0.000023574408     0.000019646102    -0.000028135409
      22        0.000031426265    -0.000068807545    -0.000072025975
      23       -0.000005848864     0.000028666659     0.000179527437

  **** Optimization is complete! (in 6 steps) ****
    Final optimized geometry and variables:
    Molecular point group: c1

    Geometry (in Angstrom), charge = 0, multiplicity = 1:

    C            1.603269546009    -0.555892884129    -1.298644387136
    N            0.636959748674    -0.279860068483    -0.222812078262
    C           -0.716393801669    -0.547134594047    -0.710963739625
    C           -1.906293812108    -0.060003413260     0.103995131634
    C            0.899415078161     1.034148763619     0.420804188482
    H           -0.818900374018    -1.629636226500    -0.835523560111
    H           -0.871444950578    -0.108783777284    -1.716933946808
    N           -3.105715086407    -0.486483289698    -0.400687871242
    O           -1.869669879185     0.695532033721     1.087360982484
    C            3.039371061860    -0.695050096817    -0.807369742235
    H            1.310290278341    -1.496724389448    -1.773367133550
    H            1.545662524073     0.225770443137    -2.078918749120
    C            1.541547078232     0.872136463185     1.794794844380
    H            1.550074837005     1.628667907932    -0.234955875149
    H           -0.027601824745     1.584202100473     0.537432645671
    H            3.093676667461    -1.448443184929    -0.021337242916
    H            3.689224169894    -0.999183815259    -1.630493608244
    H            1.758935786222     1.848376846078     2.236321143102
    H            0.851840639145     0.342197147272     2.451462769525
    H           -3.181459766727    -1.280032464615    -1.009387405423
    H           -3.936476046201    -0.175756845408     0.071062513128
    H            3.426773624700     0.243241474664    -0.409407705607
    H            2.468821121505     0.301390107574     1.742227535491

*** Psi4 exiting successfully. Buy a developer a beer!
