                               Psi4 1.5 release

  ==> Input File <==

--------------------------------------------------------------------------
molecule {
0 1
 N    3.143600   -0.079700   -1.318400
 C    4.273600   -0.723800   -0.772300
 C    5.632700   -0.415400   -1.457400
 N    6.779800   -0.976400   -0.699300
 O    4.248400   -1.467100    0.213100
 H    5.593600   -0.894100   -2.443000
 H    5.761300    0.665700   -1.577200
 C    1.830800   -0.220300   -0.728700
 C   -0.798700   -0.461700    0.408600
 C    0.175900   -1.455600    0.573900
 C   -0.435200    0.645900   -0.349200
 C    1.461500   -1.339200    0.021200
 C    0.850600    0.767300   -0.906100
 C    3.256100    0.841600   -2.453100
 C    8.005700   -1.030300   -1.507100
 C    7.010800   -0.264600    0.572200
 H   -0.061300   -2.359000    1.133800
 H   -1.120700    1.468400   -0.508800
 H    2.134700   -2.177400    0.171200
 H    1.053800    1.682700   -1.453900
 H    2.362000    0.793400   -3.083100
 H    3.406300    1.856200   -2.071600
 H    4.095600    0.583600   -3.101400
 H    7.824600   -1.602200   -2.424800
 H    8.315000   -0.020100   -1.804800
 H    7.292000    0.778600    0.377000
 H    6.108300   -0.240100    1.190500
 H   -1.737800   -0.547700    0.827800
 H    8.767500   -1.492300   -0.914500
 H    7.790200   -0.791300    1.082200
}
set {
  geom_maxiter 400
  g_convergence GAU
  dynamic_level 1
}
memory 8.166666666666666GB
set_num_threads(2)
psi4_io.set_default_path("/scratch/bdw2292/Psi4-25_27_Index_0-farH_in17")
for _ in range(1):
  try:
    set opt_coordinates both
    optimize('mp2/6-31G*')
    break
  except:
    break
  else:
    try:
      set opt_coordinates cartesian
      optimize('mp2/6-31G*')
      break
    except:
      pass
clean()
--------------------------------------------------------------------------

    Molecular point group: c1
  Charge       = 0
  Multiplicity = 1
  Basis Set: 6-31G*
    Blend: 6-31G*
  Basis Set: (6-31G* AUX)
    Blend: CC-PVDZ-JKFIT
  @DF-RHF Final Energy:  -609.58955646354423
    Total Energy =                       -609.5895564635441133
  Basis Set: (6-31G* AUX)
    Blend: CC-PVDZ-RI
    Molecular point group: c1
  Basis Set: 6-31G*
    Blend: 6-31G*
  Basis Set: (6-31G* AUX)
    Blend: CC-PVDZ-JKFIT
  Basis Set: (6-31G* AUX)
    Blend: CC-PVDZ-JKFIT
	 Reference Energy          =    -609.5895564635442270 [Eh]
	 Singles Energy            =      -0.0000000000000000 [Eh]
	 Same-Spin Energy          =      -0.5181680227917497 [Eh]
	 Opposite-Spin Energy      =      -1.4630667417612671 [Eh]
	 Correlation Energy        =      -1.9812347645530166 [Eh]
	 Total Energy              =    -611.5707912280972778 [Eh]
	 SCS Total Energy          =    -611.5179592279216649 [Eh]
  @DF-RHF Final Energy:  -609.59962970402330
    Total Energy =                       -609.5996297040233003
  @DF-RHF Final Energy:  -609.60192980848092
    Total Energy =                       -609.6019298084809179
  @DF-RHF Final Energy:  -609.60167119584128
    Total Energy =                       -609.6016711958411634
  @DF-RHF Final Energy:  -609.60196237345122
    Total Energy =                       -609.6019623734512152
  @DF-RHF Final Energy:  -609.60256935750726
    Total Energy =                       -609.6025693575072637
  @DF-RHF Final Energy:  -609.60339513950589
    Total Energy =                       -609.6033951395058921
  @DF-RHF Final Energy:  -609.60341317600228
    Total Energy =                       -609.6034131760022774
  @DF-RHF Final Energy:  -609.60329505708728
    Total Energy =                       -609.6032950570872799
  @DF-RHF Final Energy:  -609.60319881941325
    Total Energy =                       -609.6031988194133646
  Charge       = 0
  Multiplicity = 1
  Basis Set: 6-31G*
    Blend: 6-31G*
  Basis Set: (6-31G* AUX)
    Blend: CC-PVDZ-JKFIT

    Orbital Energies [Eh]
    ---------------------

    Doubly Occupied:

       1A    -20.524322     2A    -15.599987     3A    -15.554579
       4A    -11.355232     5A    -11.277380     6A    -11.274944
       7A    -11.270527     8A    -11.246377     9A    -11.235716
      10A    -11.234397    11A    -11.232755    12A    -11.232311
      13A    -11.230138    14A    -11.227979    15A     -1.375580
      16A     -1.256841    17A     -1.232921    18A     -1.138295
      19A     -1.021663    20A     -1.011959    21A     -0.985532
      22A     -0.951370    23A     -0.947996    24A     -0.854493
      25A     -0.825425    26A     -0.805632    27A     -0.745875
      28A     -0.692456    29A     -0.691224    30A     -0.666833
      31A     -0.659701    32A     -0.636053    33A     -0.632024
      34A     -0.618763    35A     -0.606353    36A     -0.591434
      37A     -0.580785    38A     -0.571307    39A     -0.565721
      40A     -0.545956    41A     -0.534580    42A     -0.523089
      43A     -0.509410    44A     -0.506551    45A     -0.502369
      46A     -0.491653    47A     -0.486763    48A     -0.413339
      49A     -0.398299    50A     -0.359832    51A     -0.330103
      52A     -0.309843

  @DF-RHF Final Energy:  -609.60326690051170

   => Energetics <=

    Nuclear Repulsion Energy =            885.5865079662515882
    One-Electron Energy =               -2586.2302178571180775
    Two-Electron Energy =                1091.0404429903546770
    Total Energy =                       -609.6032669005116986

  Dipole Moment: [D]
     X:    -0.0279      Y:     2.6614      Z:    -3.2830     Total:     4.2264

  Basis Set: (6-31G* AUX)
    Blend: CC-PVDZ-RI
    Molecular point group: c1
  Basis Set: 6-31G*
    Blend: 6-31G*
  Basis Set: (6-31G* AUX)
    Blend: CC-PVDZ-JKFIT
  Basis Set: (6-31G* AUX)
    Blend: CC-PVDZ-JKFIT
	 Reference Energy          =    -609.6032669005116986 [Eh]
	 Singles Energy            =      -0.0000000000000000 [Eh]
	 Same-Spin Energy          =      -0.5187352331292581 [Eh]
	 Opposite-Spin Energy      =      -1.4617521770582727 [Eh]
	 Correlation Energy        =      -1.9804874101875307 [Eh]
	 Total Energy              =    -611.5837543106991916 [Eh]

	 ================> DF-SCS-MP2 Energies <==================
	-----------------------------------------------------------
	 SCS Same-Spin Scale       =       0.3333333333333333 [-]
	 SCS Opposite-Spin Scale   =       1.2000000000000000 [-]
	 SCS Same-Spin Energy      =      -0.1729117443764193 [Eh]
	 SCS Opposite-Spin Energy  =      -1.7541026124699270 [Eh]
	 SCS Correlation Energy    =      -1.9270143568463465 [Eh]
	 SCS Total Energy          =    -611.5302812573580695 [Eh]
	-----------------------------------------------------------

  -Total Gradient:
     Atom            X                  Y                   Z
    ------   -----------------  -----------------  -----------------
       1        0.000005692502     0.000020846943    -0.000022350553
       2        0.000012930185     0.000015309401    -0.000022319044
       3        0.000011872695     0.000000155964     0.000015956656
       4        0.000005226849    -0.000026294512    -0.000004426071
       5       -0.000023792613    -0.000019190713     0.000030147956
       6       -0.000000016789    -0.000003859827    -0.000009782010
       7        0.000000550894     0.000006873269    -0.000000965480
       8       -0.000024797191    -0.000012598268    -0.000002777755
       9       -0.000031390019     0.000001464227     0.000018761565
      10       -0.000005174443    -0.000008323577     0.000002527092
      11       -0.000004820371    -0.000001011747     0.000001517941
      12        0.000042574415     0.000008562293     0.000001792654
      13        0.000001885725     0.000008306278    -0.000003334896
      14        0.000006412097    -0.000001918910     0.000020823524
      15        0.000004916980     0.000007502047     0.000017149717
      16        0.000003203549     0.000008424050    -0.000017593309
      17       -0.000006319232    -0.000005316611     0.000005758593
      18       -0.000003306034     0.000004595914     0.000003414555
      19       -0.000004331267    -0.000007244927    -0.000001460968
      20        0.000006343299     0.000004400495    -0.000002623343
      21       -0.000015308433    -0.000002838825    -0.000007157283
      22        0.000004669782     0.000012101109     0.000006465997
      23        0.000016019789    -0.000015157292    -0.000011447554
      24       -0.000008181894    -0.000005482581    -0.000010959935
      25        0.000002152244     0.000007259973    -0.000001786913
      26        0.000001421709     0.000016606323    -0.000000007834
      27       -0.000017416097     0.000000601132     0.000007900478
      28        0.000015107800    -0.000001441336    -0.000009193886
      29       -0.000001561755    -0.000000228889     0.000001574023
      30        0.000005435622    -0.000012101403    -0.000005603922

  **** Optimization is complete! (in 11 steps) ****
    Final optimized geometry and variables:
    Molecular point group: c1

    Geometry (in Angstrom), charge = 0, multiplicity = 1:

    N           -0.272552034317     0.283397765068    -0.738619717919
    C            0.850912553875    -0.268578901551    -0.144615435914
    C            2.159972761180    -0.041954225017    -0.899560394140
    N            3.298861800062    -0.624463820021    -0.223365115286
    O            0.794414288688    -0.907283259366     0.903383392461
    H            2.070321873304    -0.516794514462    -1.885002956064
    H            2.297288855864     1.042982778353    -1.088539125863
    C           -1.520788806943     0.218381291896    -0.053552147431
    C           -4.007744760531     0.101823463628     1.217638657249
    C           -3.251715041031    -1.057798381716     1.039437113114
    C           -3.513329670153     1.321885954639     0.759485099193
    C           -2.016281395530    -1.008792372318     0.398979011992
    C           -2.270164577243     1.384446622022     0.131581407624
    C           -0.197358434774     1.136851988240    -1.920471313454
    C            4.445297529129    -0.641186870606    -1.119726533229
    C            3.623311348309     0.111135951145     0.992418192736
    H           -3.630918499626    -2.013538460456     1.391994031591
    H           -4.089997227307     2.232794613656     0.898785571352
    H           -1.430163733463    -1.909024444572     0.255569698761
    H           -1.876446785434     2.342364775810    -0.197981686976
    H           -1.191082341154     1.179589009515    -2.367024087592
    H            0.129962848522     2.157648973182    -1.690032568143
    H            0.483756953280     0.710498029335    -2.657599098871
    H            4.213120799301    -1.238972257394    -2.005434236723
    H            4.752989809223     0.368401287167    -1.449706731494
    H            3.879168605261     1.167327266357     0.785483416621
    H            2.778259288826     0.068639364571     1.677051599236
    H           -4.973960853675     0.054577699894     1.712576414935
    H            5.291579015103    -1.104356957780    -0.606444163083
    H            4.483364384884    -0.361533290325     1.473163120969

*** Psi4 exiting successfully. Buy a developer a beer!
