                               Psi4 1.5 release

  ==> Input File <==

--------------------------------------------------------------------------
molecule {
0 1
N          3.14360       -0.07970       -1.31840
C          4.27360       -0.72380       -0.77230
C          5.63270       -0.41540       -1.45740
N          6.77980       -0.97640       -0.69930
O          4.24840       -1.46710        0.21310
H          5.59360       -0.89410       -2.44300
H          5.76130        0.66570       -1.57720
C          1.83080       -0.22030       -0.72870
C         -0.79870       -0.46170        0.40860
C          0.17590       -1.45560        0.57390
C         -0.43520        0.64590       -0.34920
C          1.46150       -1.33920        0.02120
C          0.85060        0.76730       -0.90610
C          3.25610        0.84160       -2.45310
C          8.00570       -1.03030       -1.50710
C          7.01080       -0.26460        0.57220
H         -0.06130       -2.35900        1.13380
H         -1.12070        1.46840       -0.50880
H          2.13470       -2.17740        0.17120
H          1.05380        1.68270       -1.45390
H          2.36200        0.79340       -3.08310
H          3.40630        1.85620       -2.07160
H          4.09560        0.58360       -3.10140
H          7.82460       -1.60220       -2.42480
H          8.31500       -0.02010       -1.80480
H          7.29200        0.77860        0.37700
H          6.10830       -0.24010        1.19050
H         -1.73780       -0.54770        0.82780
H          8.76750       -1.49230       -0.91450
H          7.79020       -0.79130        1.08220
}
memory 49GB
set_num_threads(12)
psi4_io.set_default_path("/scratch/bdw2292/Psi4-farH_in17")
set maxiter 500
set freeze_core True
set PROPERTIES_ORIGIN ["COM"]
set cubeprop_tasks ['esp']
set basis MINIX
E, wfn = properties('hf',properties=['dipole'],return_wfn=True)
cubeprop(wfn)
fchk(wfn, "farH_in17-esp_frag.fchk")
oeprop(wfn,"WIBERG_LOWDIN_INDICES","MULLIKEN_CHARGES")
clean()
--------------------------------------------------------------------------

    Molecular point group: c1

    Geometry (in Angstrom), charge = 0, multiplicity = 1:

       Center              X                  Y                   Z               Mass
    ------------   -----------------  -----------------  -----------------  -----------------
         N           -0.240583113703     0.359810702267    -0.700387999268    14.003074004430
         C            0.889416886297    -0.284289297733    -0.154287999268    12.000000000000
         C            2.248516886297     0.024110702267    -0.839387999268    12.000000000000
         N            3.395616886297    -0.536889297733    -0.081287999268    14.003074004430
         O            0.864216886297    -1.027589297733     0.831112000732    15.994914619570
         H            2.209416886297    -0.454589297733    -1.824987999268     1.007825032230
         H            2.377116886297     1.105210702267    -0.959187999268     1.007825032230
         C           -1.553383113703     0.219210702267    -0.110687999268    12.000000000000
         C           -4.182883113703    -0.022189297733     1.026612000732    12.000000000000
         C           -3.208283113703    -1.016089297733     1.191912000732    12.000000000000
         C           -3.819383113703     1.085410702267     0.268812000732    12.000000000000
         C           -1.922683113703    -0.899689297733     0.639212000732    12.000000000000
         C           -2.533583113703     1.206810702267    -0.288087999268    12.000000000000
         C           -0.128083113703     1.281110702267    -1.835087999268    12.000000000000
         C            4.621516886297    -0.590789297733    -0.889087999268    12.000000000000
         C            3.626616886297     0.174910702267     1.190212000732    12.000000000000
         H           -3.445483113703    -1.919489297733     1.751812000732     1.007825032230
         H           -4.504883113703     1.907910702267     0.109212000732     1.007825032230
         H           -1.249483113703    -1.737889297733     0.789212000732     1.007825032230
         H           -2.330383113703     2.122210702267    -0.835887999268     1.007825032230
         H           -1.022183113703     1.232910702267    -2.465087999268     1.007825032230
         H            0.022116886297     2.295710702267    -1.453587999268     1.007825032230
         H            0.711416886297     1.023110702267    -2.483387999268     1.007825032230
         H            4.440416886297    -1.162689297733    -1.806787999268     1.007825032230
         H            4.930816886297     0.419410702267    -1.186787999268     1.007825032230
         H            3.907816886297     1.218110702267     0.995012000732     1.007825032230
         H            2.724116886297     0.199410702267     1.808512000732     1.007825032230
         H           -5.121983113703    -0.108189297733     1.445812000732     1.007825032230
         H            5.383316886297    -1.052789297733    -0.296487999268     1.007825032230
         H            4.406016886297    -0.351789297733     1.700212000732     1.007825032230

  Charge       = 0
  Multiplicity = 1
  Basis Set: MINIX
    Blend: MINIX
  Basis Set: (MINIX AUX)
    Blend: DEF2-UNIVERSAL-JKFIT

    Orbital Energies [Eh]
    ---------------------

    Doubly Occupied:

       1A    -20.298273     2A    -15.452086     3A    -15.379330
       4A    -11.318196     5A    -11.234650     6A    -11.218053
       7A    -11.208195     8A    -11.180956     9A    -11.175652
      10A    -11.172262    11A    -11.170491    12A    -11.169105
      13A    -11.167322    14A    -11.164309    15A     -1.372182
      16A     -1.243403    17A     -1.212023    18A     -1.145868
      19A     -1.028164    20A     -1.012156    21A     -0.986004
      22A     -0.950903    23A     -0.949247    24A     -0.851676
      25A     -0.821089    26A     -0.805423    27A     -0.744932
      28A     -0.695748    29A     -0.684608    30A     -0.668215
      31A     -0.653462    32A     -0.634993    33A     -0.630797
      34A     -0.616434    35A     -0.607869    36A     -0.591200
      37A     -0.574840    38A     -0.560429    39A     -0.552746
      40A     -0.550468    41A     -0.535768    42A     -0.532322
      43A     -0.510048    44A     -0.504725    45A     -0.496797
      46A     -0.489907    47A     -0.481010    48A     -0.403828
      49A     -0.389347    50A     -0.341248    51A     -0.336746
      52A     -0.308125

  @DF-RHF Final Energy:  -605.43274197329936

   => Energetics <=

    Nuclear Repulsion Energy =            875.7860193006595182
    One-Electron Energy =               -2560.8703297605920852
    Two-Electron Energy =                1079.6515684866333231
    Total Energy =                       -605.4327419732992439

  Dipole Moment: [D]
     X:     0.6053      Y:     3.0343      Z:    -3.0470     Total:     4.3425

  Basis Set: MINIX
    Blend: MINIX

  Mulliken Charges: (a.u.)
   Center  Symbol    Alpha    Beta     Spin     Total
       1     N     3.66047  3.66047  0.00000 -0.32094
       2     C     2.80294  2.80294  0.00000  0.39412
       3     C     3.07434  3.07434  0.00000 -0.14869
       4     N     3.65121  3.65121  0.00000 -0.30242
       5     O     4.20321  4.20321  0.00000 -0.40642
       6     H     0.42967  0.42967  0.00000  0.14067
       7     H     0.43816  0.43816  0.00000  0.12368
       8     C     2.94955  2.94955  0.00000  0.10091
       9     C     3.08102  3.08102  0.00000 -0.16204
      10     C     3.06272  3.06272  0.00000 -0.12544
      11     C     3.06528  3.06528  0.00000 -0.13055
      12     C     3.07101  3.07101  0.00000 -0.14203
      13     C     3.07678  3.07678  0.00000 -0.15355
      14     C     3.12296  3.12296  0.00000 -0.24593
      15     C     3.12941  3.12941  0.00000 -0.25881
      16     C     3.13075  3.13075  0.00000 -0.26150
      17     H     0.42967  0.42967  0.00000  0.14067
      18     H     0.43110  0.43110  0.00000  0.13780
      19     H     0.41543  0.41543  0.00000  0.16914
      20     H     0.43332  0.43332  0.00000  0.13336
      21     H     0.42592  0.42592  0.00000  0.14816
      22     H     0.43311  0.43311  0.00000  0.13378
      23     H     0.43006  0.43006  0.00000  0.13988
      24     H     0.43578  0.43578  0.00000  0.12845
      25     H     0.44509  0.44509  0.00000  0.10982
      26     H     0.44730  0.44730  0.00000  0.10540
      27     H     0.42694  0.42694  0.00000  0.14613
      28     H     0.43014  0.43014  0.00000  0.13971
      29     H     0.43272  0.43272  0.00000  0.13457
      30     H     0.43395  0.43395  0.00000  0.13210

   Total alpha = 52.00000, Total beta = 52.00000, Total charge = -0.00000

*** Psi4 exiting successfully. Buy a developer a beer!
