                               Psi4 1.3.2 release

  ==> Input File <==

--------------------------------------------------------------------------
molecule {
0 1
O         -4.29600        0.70990        0.04690
C         -4.15550       -0.51950       -0.13450
N         -2.88880       -1.10540       -0.07100
C         -1.67290       -0.44230        0.21710
C         -2.79090       -2.55700       -0.33120
C         -0.45250       -0.99130       -0.17810
C          0.81870        0.79670        0.73960
C          0.76840       -0.39010        0.07510
C         -0.38080        1.37730        1.15150
C         -1.58120        0.75890        0.88810
C         -5.39960       -1.30330       -0.41360
H         -2.17240       -3.04390        0.42450
H         -2.33400       -2.65370       -1.32860
H         -3.80720       -3.03690       -0.27370
H         -0.49600       -1.93920       -0.70890
H          1.69470       -0.88110       -0.25600
H         -0.33620        2.31250        1.67300
H         -2.48410        1.26410        1.24600
H         -5.54410       -2.13730        0.30810
H         -5.24070       -1.74240       -1.43810
N          2.01500        1.48570        1.02620
H          2.04670        2.35900        1.59500
H         -6.26110       -0.67330       -0.33730
H          2.86020        1.12530        0.67260
}
memory 100GB
set_num_threads(12)
psi4_io.set_default_path("/scratch/bdw2292/Psi4-farH_in17")
set maxiter 500
set freeze_core True
set PROPERTIES_ORIGIN ["COM"]
set cubeprop_tasks ['esp']
E, wfn = properties('hf/MINIX',properties=['dipole'],return_wfn=True)
cubeprop(wfn)
fchk(wfn, "farH_in17-esp_frag.fchk")
oeprop(wfn,"WIBERG_LOWDIN_INDICES","MULLIKEN_CHARGES")
clean()
--------------------------------------------------------------------------

    Molecular point group: c1

    Geometry (in Angstrom), charge = 0, multiplicity = 1:

       Center              X                  Y                   Z               Mass
    ------------   -----------------  -----------------  -----------------  -----------------
         O           -2.581428355463     0.902987787520    -0.196147281877    15.994914619570
         C           -2.440928355463    -0.326412212480    -0.377547281877    12.000000000000
         N           -1.174228355463    -0.912312212480    -0.314047281877    14.003074004430
         C            0.041671644537    -0.249212212480    -0.025947281877    12.000000000000
         C           -1.076328355463    -2.363912212480    -0.574247281877    12.000000000000
         C            1.262071644537    -0.798212212480    -0.421147281877    12.000000000000
         C            2.533271644537     0.989787787520     0.496552718123    12.000000000000
         C            2.482971644537    -0.197012212480    -0.167947281877    12.000000000000
         C            1.333771644537     1.570387787520     0.908452718123    12.000000000000
         C            0.133371644537     0.951987787520     0.645052718123    12.000000000000
         C           -3.685028355463    -1.110212212480    -0.656647281877    12.000000000000
         H           -0.457828355463    -2.850812212480     0.181452718123     1.007825032230
         H           -0.619428355463    -2.460612212480    -1.571647281877     1.007825032230
         H           -2.092628355463    -2.843812212480    -0.516747281877     1.007825032230
         H            1.218571644537    -1.746112212480    -0.951947281877     1.007825032230
         H            3.409271644537    -0.688012212480    -0.499047281877     1.007825032230
         H            1.378371644537     2.505587787520     1.429952718123     1.007825032230
         H           -0.769528355463     1.457187787520     1.002952718123     1.007825032230
         H           -3.829528355463    -1.944212212480     0.065052718123     1.007825032230
         H           -3.526128355463    -1.549312212480    -1.681147281877     1.007825032230
         N            3.729571644537     1.678787787520     0.783152718123    14.003074004430
         H            3.761271644537     2.552087787520     1.351952718123     1.007825032230
         H           -4.546528355463    -0.480212212480    -0.580347281877     1.007825032230
         H            4.574771644537     1.318387787520     0.429552718123     1.007825032230

  Charge       = 0
  Multiplicity = 1
  Basis Set: MINIX
    Blend: MINIX
  Basis Set: (MINIX AUX)
    Blend: DEF2-SVP-JKFIT

    Orbital Energies [Eh]
    ---------------------

    Doubly Occupied:

       1A    -20.268165     2A    -15.446293     3A    -15.381927
       4A    -11.309074     5A    -11.226582     6A    -11.215046
       7A    -11.206963     8A    -11.180316     9A    -11.165799
      10A    -11.162210    11A    -11.158372    12A    -11.151826
      13A     -1.356101    14A     -1.239161    15A     -1.196733
      16A     -1.118483    17A     -1.021962    18A     -1.014644
      19A     -0.981309    20A     -0.939346    21A     -0.834694
      22A     -0.820600    23A     -0.750091    24A     -0.689297
      25A     -0.681007    26A     -0.657567    27A     -0.647971
      28A     -0.638613    29A     -0.615501    30A     -0.592889
      31A     -0.586109    32A     -0.575711    33A     -0.571821
      34A     -0.550686    35A     -0.543258    36A     -0.530993
      37A     -0.509069    38A     -0.498036    39A     -0.471791
      40A     -0.445973    41A     -0.382356    42A     -0.365839
      43A     -0.345075    44A     -0.265411

  @DF-RHF Final Energy:  -527.89229370210853

   => Energetics <=

    Nuclear Repulsion Energy =            679.3146707959846253
    One-Electron Energy =               -2065.7926270702323563
    Two-Electron Energy =                 858.5856625721393129
    Total Energy =                       -527.8922937021085318

  Dipole Moment: [D]
     X:     1.4195      Y:    -2.9830      Z:    -0.1088     Total:     3.3053

  Basis Set: MINIX
    Blend: MINIX

  Mulliken Charges: (a.u.)
   Center  Symbol    Alpha    Beta     Spin     Total
       1     O     4.21168  4.21168  0.00000 -0.42335
       2     C     2.81085  2.81085  0.00000  0.37829
       3     N     3.65929  3.65929  0.00000 -0.31857
       4     C     2.96134  2.96134  0.00000  0.07733
       5     C     3.11977  3.11977  0.00000 -0.23954
       6     C     3.06685  3.06685  0.00000 -0.13371
       7     C     2.94818  2.94818  0.00000  0.10365
       8     C     3.08617  3.08617  0.00000 -0.17233
       9     C     3.08012  3.08012  0.00000 -0.16023
      10     C     3.06427  3.06427  0.00000 -0.12853
      11     C     3.19144  3.19144  0.00000 -0.38288
      12     H     0.43013  0.43013  0.00000  0.13973
      13     H     0.43342  0.43342  0.00000  0.13316
      14     H     0.43029  0.43029  0.00000  0.13942
      15     H     0.43402  0.43402  0.00000  0.13196
      16     H     0.43317  0.43317  0.00000  0.13366
      17     H     0.43370  0.43370  0.00000  0.13259
      18     H     0.41539  0.41539  0.00000  0.16921
      19     H     0.42972  0.42972  0.00000  0.14056
      20     H     0.42732  0.42732  0.00000  0.14535
      21     N     3.75278  3.75278  0.00000 -0.50557
      22     H     0.37893  0.37893  0.00000  0.24215
      23     H     0.41901  0.41901  0.00000  0.16198
      24     H     0.38217  0.38217  0.00000  0.23566

   Total alpha = 44.00000, Total beta = 44.00000, Total charge =  0.00000

*** Psi4 exiting successfully. Buy a developer a beer!
