                               Psi4 1.5 release

  ==> Input File <==

--------------------------------------------------------------------------
molecule {
0 1
C 1.582965860046 -0.439358035535 -1.348213838918
N 0.587456500222 -0.139443230367 -0.319353768594
C -0.736107887142 -0.108590965516 -0.906213959757
C -1.844455354470 -0.179191533921 0.138524484051
C 0.893469039863 1.107448791984 0.407624314438
H -0.844066308888 -0.977586959046 -1.567899311454
H -0.918665739147 0.784503769127 -1.537371925820
N -3.101769847855 -0.281438599653 -0.404849552792
O -1.661995697636 -0.090342436110 1.348157093911
C 2.963472730680 -0.708176203894 -0.771693055328
H 1.245798365296 -1.336538255652 -1.879452013315
H 1.648256791191 0.372018057696 -2.099411087419
C 1.430088491438 0.841779343524 1.805017357153
H 1.599977935116 1.718770782478 -0.177092937513
H -0.023175950976 1.696762798944 0.497377376360
H 2.907491107534 -1.496333566989 -0.017856680974
H 3.642074352395 -1.030321587109 -1.567180539061
H 1.635551875857 1.785717366070 2.321329345353
H 0.679596778956 0.284970274354 2.365689434138
H -3.228180081890 -0.615904639303 -1.349834162517
H -3.852781916460 -0.465501757568 0.248093850464
H 3.394209202149 0.183068438347 -0.311400192957
H 2.352199267491 0.258999908738 1.777682006602
}
memory 8.166666666666666GB
set_num_threads(2)
psi4_io.set_default_path("/scratch/bdw2292/Psi4-4_27_Index_0-farH_in17")
set maxiter 500
set freeze_core True
set PROPERTIES_ORIGIN ["COM"]
set cubeprop_tasks ['esp']
set basis aug-cc-pVTZ
E, wfn = properties('mp2',properties=['dipole'],return_wfn=True)
cubeprop(wfn)
fchk(wfn, "4_27_Index_0-esp.fchk")
oeprop(wfn,"GRID_ESP","WIBERG_LOWDIN_INDICES","MULLIKEN_CHARGES")
clean()
--------------------------------------------------------------------------

    Molecular point group: c1
  Charge       = 0
  Multiplicity = 1
  Basis Set: AUG-CC-PVTZ
    Blend: AUG-CC-PVTZ
  Basis Set: (AUG-CC-PVTZ AUX)
    Blend: AUG-CC-PVTZ-JKFIT

    Orbital Energies [Eh]
    ---------------------

    Doubly Occupied:

       1A    -20.522248     2A    -15.586688     3A    -15.547758
       4A    -11.354337     5A    -11.270675     6A    -11.251316
       7A    -11.238827     8A    -11.211851     9A    -11.191168
      10A     -1.377792    11A     -1.231905    12A     -1.210537
      13A     -1.023068    14A     -1.011583    15A     -0.932996
      16A     -0.846023    17A     -0.802373    18A     -0.772526
      19A     -0.718838    20A     -0.676243    21A     -0.650159
      22A     -0.641684    23A     -0.616331    24A     -0.604216
      25A     -0.574344    26A     -0.558817    27A     -0.543313
      28A     -0.529792    29A     -0.515255    30A     -0.499195
      31A     -0.491175    32A     -0.473889    33A     -0.461561
      34A     -0.426913    35A     -0.416713    36A     -0.357951

  @DF-RHF Final Energy:  -419.27175467305005

   => Energetics <=

    Nuclear Repulsion Energy =            487.4269802908317502
    One-Electron Energy =               -1537.1173505691592709
    Two-Electron Energy =                 630.4186156052774095
    Total Energy =                       -419.2717546730500544
  Basis Set: (AUG-CC-PVTZ AUX)
    Blend: AUG-CC-PVTZ-RI
    Molecular point group: c1

    Geometry (in Angstrom), charge = 0, multiplicity = 1:

       Center              X                  Y                   Z               Mass
    ------------   -----------------  -----------------  -----------------  -----------------
         C            1.582965860046    -0.439358035535    -1.348213838918    12.000000000000
         N            0.587456500222    -0.139443230367    -0.319353768594    14.003074004430
         C           -0.736107887142    -0.108590965516    -0.906213959757    12.000000000000
         C           -1.844455354470    -0.179191533921     0.138524484051    12.000000000000
         C            0.893469039863     1.107448791984     0.407624314438    12.000000000000
         H           -0.844066308888    -0.977586959046    -1.567899311454     1.007825032230
         H           -0.918665739147     0.784503769127    -1.537371925820     1.007825032230
         N           -3.101769847855    -0.281438599653    -0.404849552792    14.003074004430
         O           -1.661995697636    -0.090342436110     1.348157093911    15.994914619570
         C            2.963472730680    -0.708176203894    -0.771693055328    12.000000000000
         H            1.245798365296    -1.336538255652    -1.879452013315     1.007825032230
         H            1.648256791191     0.372018057696    -2.099411087419     1.007825032230
         C            1.430088491438     0.841779343524     1.805017357153    12.000000000000
         H            1.599977935116     1.718770782478    -0.177092937513     1.007825032230
         H           -0.023175950976     1.696762798944     0.497377376360     1.007825032230
         H            2.907491107534    -1.496333566989    -0.017856680974     1.007825032230
         H            3.642074352395    -1.030321587109    -1.567180539061     1.007825032230
         H            1.635551875857     1.785717366070     2.321329345353     1.007825032230
         H            0.679596778956     0.284970274354     2.365689434138     1.007825032230
         H           -3.228180081890    -0.615904639303    -1.349834162517     1.007825032230
         H           -3.852781916460    -0.465501757568     0.248093850464     1.007825032230
         H            3.394209202149     0.183068438347    -0.311400192957     1.007825032230
         H            2.352199267491     0.258999908738     1.777682006602     1.007825032230

  Basis Set: AUG-CC-PVTZ
    Blend: AUG-CC-PVTZ
  Basis Set: (AUG-CC-PVTZ AUX)
    Blend: AUG-CC-PVTZ-JKFIT
	 Reference Energy          =    -419.2717546730500544 [Eh]
	 Singles Energy            =      -0.0000000000000000 [Eh]
	 Same-Spin Energy          =      -0.4100431354268659 [Eh]
	 Opposite-Spin Energy      =      -1.3111804677738692 [Eh]
	 Correlation Energy        =      -1.7212236032007351 [Eh]
	 Total Energy              =    -420.9929782762507671 [Eh]

	 ================> DF-SCS-MP2 Energies <==================
	-----------------------------------------------------------
	 SCS Same-Spin Scale       =       0.3333333333333333 [-]
	 SCS Opposite-Spin Scale   =       1.2000000000000000 [-]
	 SCS Same-Spin Energy      =      -0.1366810451422886 [Eh]
	 SCS Opposite-Spin Energy  =      -1.5734165613286430 [Eh]
	 SCS Correlation Energy    =      -1.7100976064709317 [Eh]
	 SCS Total Energy          =    -420.9818522795209788 [Eh]
	-----------------------------------------------------------

  Dipole Moment: [D]
     X:    -1.1278      Y:    -0.4474      Z:    -3.4806     Total:     3.6860

  Basis Set: AUG-CC-PVTZ
    Blend: AUG-CC-PVTZ

  Mulliken Charges: (a.u.)
   Center  Symbol    Alpha    Beta     Spin     Total
       1     C     3.29056  3.29056  0.00000 -0.58111
       2     N     3.48527  3.48527  0.00000  0.02946
       3     C     3.10971  3.10971  0.00000 -0.21941
       4     C     2.78672  2.78672  0.00000  0.42657
       5     C     3.19973  3.19973  0.00000 -0.39947
       6     H     0.33944  0.33944  0.00000  0.32112
       7     H     0.35508  0.35508  0.00000  0.28983
       8     N     3.71657  3.71657  0.00000 -0.43313
       9     O     4.35706  4.35706  0.00000 -0.71411
      10     C     3.48188  3.48188  0.00000 -0.96376
      11     H     0.30940  0.30940  0.00000  0.38120
      12     H     0.36146  0.36146  0.00000  0.27708
      13     C     3.52340  3.52340  0.00000 -1.04681
      14     H     0.39289  0.39289  0.00000  0.21422
      15     H     0.30907  0.30907  0.00000  0.38186
      16     H     0.36300  0.36300  0.00000  0.27400
      17     H     0.34572  0.34572  0.00000  0.30856
      18     H     0.36514  0.36514  0.00000  0.26971
      19     H     0.32786  0.32786  0.00000  0.34428
      20     H     0.45489  0.45489  0.00000  0.09022
      21     H     0.41459  0.41459  0.00000  0.17082
      22     H     0.36965  0.36965  0.00000  0.26070
      23     H     0.34092  0.34092  0.00000  0.31816

   Total alpha = 36.00000, Total beta = 36.00000, Total charge = -0.00000

*** Psi4 exiting successfully. Buy a developer a beer!
