                               Psi4 1.5 release

  ==> Input File <==

--------------------------------------------------------------------------
molecule {
0 1
C 1.582965860046 -0.439358035535 -1.348213838918
N 0.587456500222 -0.139443230367 -0.319353768594
C -0.736107887142 -0.108590965516 -0.906213959757
C -1.844455354470 -0.179191533921 0.138524484051
C 0.893469039863 1.107448791984 0.407624314438
H -0.844066308888 -0.977586959046 -1.567899311454
H -0.918665739147 0.784503769127 -1.537371925820
N -3.101769847855 -0.281438599653 -0.404849552792
O -1.661995697636 -0.090342436110 1.348157093911
C 2.963472730680 -0.708176203894 -0.771693055328
H 1.245798365296 -1.336538255652 -1.879452013315
H 1.648256791191 0.372018057696 -2.099411087419
C 1.430088491438 0.841779343524 1.805017357153
H 1.599977935116 1.718770782478 -0.177092937513
H -0.023175950976 1.696762798944 0.497377376360
H 2.907491107534 -1.496333566989 -0.017856680974
H 3.642074352395 -1.030321587109 -1.567180539061
H 1.635551875857 1.785717366070 2.321329345353
H 0.679596778956 0.284970274354 2.365689434138
H -3.228180081890 -0.615904639303 -1.349834162517
H -3.852781916460 -0.465501757568 0.248093850464
H 3.394209202149 0.183068438347 -0.311400192957
H 2.352199267491 0.258999908738 1.777682006602
no_reorient
}
memory 8.166666666666666GB
set_num_threads(2)
psi4_io.set_default_path("/scratch/bdw2292/Psi4-4_27_Index_0-farH_in17")
set freeze_core True
set PROPERTIES_ORIGIN ["COM"]
set cubeprop_tasks ['esp']
set basis 6-311G**
E, wfn = properties('mp2',properties=['dipole'],return_wfn=True)
cubeprop(wfn)
fchk(wfn, "4_27_Index_0-dma.fchk")
clean()
--------------------------------------------------------------------------

    Molecular point group: c1
  Charge       = 0
  Multiplicity = 1
  Basis Set: 6-311G**
    Blend: 6-311G**
  Basis Set: (6-311G** AUX)
    Blend: CC-PVTZ-JKFIT

    Orbital Energies [Eh]
    ---------------------

    Doubly Occupied:

       1A    -20.515245     2A    -15.580705     3A    -15.543059
       4A    -11.353096     5A    -11.269471     6A    -11.250589
       7A    -11.237824     8A    -11.211533     9A    -11.190100
      10A     -1.375878    11A     -1.230910    12A     -1.208060
      13A     -1.022651    14A     -1.010801    15A     -0.932109
      16A     -0.845389    17A     -0.801042    18A     -0.771102
      19A     -0.717132    20A     -0.674729    21A     -0.649020
      22A     -0.640258    23A     -0.614866    24A     -0.602674
      25A     -0.572667    26A     -0.557866    27A     -0.541393
      28A     -0.528984    29A     -0.514102    30A     -0.498008
      31A     -0.490016    32A     -0.472874    33A     -0.460460
      34A     -0.423035    35A     -0.412820    36A     -0.355655

  @DF-RHF Final Energy:  -419.22274819330516

   => Energetics <=

    Nuclear Repulsion Energy =            487.4269802908317502
    One-Electron Energy =               -1537.1472087717788781
    Two-Electron Energy =                 630.4974802876419062
    Total Energy =                       -419.2227481933051649
  Basis Set: (6-311G** AUX)
    Blend: CC-PVTZ-RI
    Molecular point group: c1

    Geometry (in Angstrom), charge = 0, multiplicity = 1:

       Center              X                  Y                   Z               Mass
    ------------   -----------------  -----------------  -----------------  -----------------
         C            1.582965860046    -0.439358035535    -1.348213838918    12.000000000000
         N            0.587456500222    -0.139443230367    -0.319353768594    14.003074004430
         C           -0.736107887142    -0.108590965516    -0.906213959757    12.000000000000
         C           -1.844455354470    -0.179191533921     0.138524484051    12.000000000000
         C            0.893469039863     1.107448791984     0.407624314438    12.000000000000
         H           -0.844066308888    -0.977586959046    -1.567899311454     1.007825032230
         H           -0.918665739147     0.784503769127    -1.537371925820     1.007825032230
         N           -3.101769847855    -0.281438599653    -0.404849552792    14.003074004430
         O           -1.661995697636    -0.090342436110     1.348157093911    15.994914619570
         C            2.963472730680    -0.708176203894    -0.771693055328    12.000000000000
         H            1.245798365296    -1.336538255652    -1.879452013315     1.007825032230
         H            1.648256791191     0.372018057696    -2.099411087419     1.007825032230
         C            1.430088491438     0.841779343524     1.805017357153    12.000000000000
         H            1.599977935116     1.718770782478    -0.177092937513     1.007825032230
         H           -0.023175950976     1.696762798944     0.497377376360     1.007825032230
         H            2.907491107534    -1.496333566989    -0.017856680974     1.007825032230
         H            3.642074352395    -1.030321587109    -1.567180539061     1.007825032230
         H            1.635551875857     1.785717366070     2.321329345353     1.007825032230
         H            0.679596778956     0.284970274354     2.365689434138     1.007825032230
         H           -3.228180081890    -0.615904639303    -1.349834162517     1.007825032230
         H           -3.852781916460    -0.465501757568     0.248093850464     1.007825032230
         H            3.394209202149     0.183068438347    -0.311400192957     1.007825032230
         H            2.352199267491     0.258999908738     1.777682006602     1.007825032230

  Basis Set: 6-311G**
    Blend: 6-311G**
  Basis Set: (6-311G** AUX)
    Blend: CC-PVTZ-JKFIT
	 Reference Energy          =    -419.2227481933051649 [Eh]
	 Singles Energy            =      -0.0000000000000000 [Eh]
	 Same-Spin Energy          =      -0.3590324969925665 [Eh]
	 Opposite-Spin Energy      =      -1.0936257444973105 [Eh]
	 Correlation Energy        =      -1.4526582414898770 [Eh]
	 Total Energy              =    -420.6754064347950361 [Eh]

	 ================> DF-SCS-MP2 Energies <==================
	-----------------------------------------------------------
	 SCS Same-Spin Scale       =       0.3333333333333333 [-]
	 SCS Opposite-Spin Scale   =       1.2000000000000000 [-]
	 SCS Same-Spin Energy      =      -0.1196774989975221 [Eh]
	 SCS Opposite-Spin Energy  =      -1.3123508933967727 [Eh]
	 SCS Correlation Energy    =      -1.4320283923942949 [Eh]
	 SCS Total Energy          =    -420.6547765856994374 [Eh]
	-----------------------------------------------------------

  Dipole Moment: [D]
     X:    -1.3759      Y:    -0.5409      Z:    -3.3333     Total:     3.6464

  Basis Set: 6-311G**
    Blend: 6-311G**
*** Psi4 exiting successfully. Buy a developer a beer!
