                               Psi4 1.5 release

  ==> Input File <==

--------------------------------------------------------------------------
molecule {
0 1
 C    8.005700   -1.030300   -1.507100
 N    6.779800   -0.976400   -0.699300
 C    5.632700   -0.415400   -1.457400
 C    4.273600   -0.723800   -0.772300
 C    7.010800   -0.264600    0.572200
 H    5.593600   -0.894100   -2.443000
 H    5.761300    0.665700   -1.577200
 N    3.143600   -0.079700   -1.318400
 O    4.248400   -1.467100    0.213100
 C    9.157000   -1.719900   -0.742800
 H    7.824600   -1.602200   -2.424800
 H    8.315000   -0.020100   -1.804800
 C    8.115800   -0.946800    1.401700
 H    7.292000    0.778600    0.377000
 H    6.108300   -0.240100    1.190500
 H    8.921200   -2.768200   -0.526500
 H   10.088900   -1.660600   -1.314300
 H    8.339200   -0.364000    2.301100
 H    7.839000   -1.970000    1.680300
 H    3.241200    0.500200   -2.108000
 H    2.257400   -0.210100   -0.909900
 H    9.281000   -1.203400    0.186000
 H    8.990700   -0.994200    0.787500
}
set {
  geom_maxiter 400
  g_convergence GAU
  dynamic_level 1
}
memory 8.166666666666666GB
set_num_threads(2)
psi4_io.set_default_path("/scratch/bdw2292/Psi4-4_27_Index_0-farH_in17")
for _ in range(1):
  try:
    set opt_coordinates both
    optimize('mp2/6-31G*')
    break
  except:
    break
  else:
    try:
      set opt_coordinates cartesian
      optimize('mp2/6-31G*')
      break
    except:
      pass
clean()
--------------------------------------------------------------------------

    Molecular point group: c1
  Charge       = 0
  Multiplicity = 1
  Basis Set: 6-31G*
    Blend: 6-31G*
  Basis Set: (6-31G* AUX)
    Blend: CC-PVDZ-JKFIT
  @DF-RHF Final Energy:  -418.93147384543835
    Total Energy =                       -418.9314738454384042
  Basis Set: (6-31G* AUX)
    Blend: CC-PVDZ-RI
    Molecular point group: c1
  Basis Set: 6-31G*
    Blend: 6-31G*
  Basis Set: (6-31G* AUX)
    Blend: CC-PVDZ-JKFIT
  Basis Set: (6-31G* AUX)
    Blend: CC-PVDZ-JKFIT
	 Reference Energy          =    -418.9314738454383473 [Eh]
	 Singles Energy            =      -0.0000000000000000 [Eh]
	 Same-Spin Energy          =      -0.3419640890324323 [Eh]
	 Opposite-Spin Energy      =      -0.9995185245049161 [Eh]
	 Correlation Energy        =      -1.3414826135373483 [Eh]
	 Total Energy              =    -420.2729564589756706 [Eh]
	 SCS Total Energy          =    -420.2448841045217023 [Eh]
  @DF-RHF Final Energy:  -419.02802075354123
    Total Energy =                       -419.0280207535412274
  @DF-RHF Final Energy:  -419.05910093973978
    Total Energy =                       -419.0591009397397784
  @DF-RHF Final Energy:  -419.08312611536064
    Total Energy =                       -419.0831261153606420
  @DF-RHF Final Energy:  -419.09546838380572
    Total Energy =                       -419.0954683838057235
  @DF-RHF Final Energy:  -419.10125898347792
    Total Energy =                       -419.1012589834779192
  @DF-RHF Final Energy:  -419.10605989057416
    Total Energy =                       -419.1060598905742154
  @DF-RHF Final Energy:  -419.10688627802296
    Total Energy =                       -419.1068862780228983
  @DF-RHF Final Energy:  -419.10777492464769
    Total Energy =                       -419.1077749246477424
  @DF-RHF Final Energy:  -419.10828170237301
    Total Energy =                       -419.1082817023730058
  @DF-RHF Final Energy:  -419.10845474501400
    Total Energy =                       -419.1084547450140008
  @DF-RHF Final Energy:  -419.10858620985260
    Total Energy =                       -419.1085862098525467
  @DF-RHF Final Energy:  -419.10870027732392
    Total Energy =                       -419.1087002773239192
  @DF-RHF Final Energy:  -419.10904742972997
    Total Energy =                       -419.1090474297299124
  @DF-RHF Final Energy:  -419.10935202423735
    Total Energy =                       -419.1093520242372961
  @DF-RHF Final Energy:  -419.10949829667987
    Total Energy =                       -419.1094982966799307
  @DF-RHF Final Energy:  -419.10950776042188
    Total Energy =                       -419.1095077604219341
  @DF-RHF Final Energy:  -419.10971729689834
    Total Energy =                       -419.1097172968983386
  @DF-RHF Final Energy:  -419.11008686486326
    Total Energy =                       -419.1100868648633195
  @DF-RHF Final Energy:  -419.11035388220398
    Total Energy =                       -419.1103538822039809
  @DF-RHF Final Energy:  -419.11014683414840
    Total Energy =                       -419.1101468341483951
  @DF-RHF Final Energy:  -419.11028548901891
    Total Energy =                       -419.1102854890189064
  @DF-RHF Final Energy:  -419.11043565241403
    Total Energy =                       -419.1104356524140258
  @DF-RHF Final Energy:  -419.11051357699694
    Total Energy =                       -419.1105135769969365
  @DF-RHF Final Energy:  -419.11049843308376
    Total Energy =                       -419.1104984330837624
  @DF-RHF Final Energy:  -419.11048020154851
    Total Energy =                       -419.1104802015485120
  @DF-RHF Final Energy:  -419.11047925904040
    Total Energy =                       -419.1104792590404031
  @DF-RHF Final Energy:  -419.11048518832115
    Total Energy =                       -419.1104851883211495
  Charge       = 0
  Multiplicity = 1
  Basis Set: 6-31G*
    Blend: 6-31G*
  Basis Set: (6-31G* AUX)
    Blend: CC-PVDZ-JKFIT

    Orbital Energies [Eh]
    ---------------------

    Doubly Occupied:

       1A    -20.527115     2A    -15.588534     3A    -15.549220
       4A    -11.354963     5A    -11.269128     6A    -11.250776
       7A    -11.237736     8A    -11.211775     9A    -11.190016
      10A     -1.373685    11A     -1.229726    12A     -1.206957
      13A     -1.021954    14A     -1.009806    15A     -0.931394
      16A     -0.844481    17A     -0.800039    18A     -0.770086
      19A     -0.716493    20A     -0.672997    21A     -0.648094
      22A     -0.638615    23A     -0.613397    24A     -0.601072
      25A     -0.570833    26A     -0.556966    27A     -0.539762
      28A     -0.528422    29A     -0.513004    30A     -0.497071
      31A     -0.489394    32A     -0.471867    33A     -0.459596
      34A     -0.419866    35A     -0.409433    36A     -0.353264

  @DF-RHF Final Energy:  -419.11049104654234

   => Energetics <=

    Nuclear Repulsion Energy =            487.4269802908118550
    One-Electron Energy =               -1536.9398615420286660
    Two-Electron Energy =                 630.4023902046744752
    Total Energy =                       -419.1104910465423927

  Dipole Moment: [D]
     X:    -1.2266      Y:    -0.5165      Z:    -4.0158     Total:     4.2306

  Basis Set: (6-31G* AUX)
    Blend: CC-PVDZ-RI
    Molecular point group: c1
  Basis Set: 6-31G*
    Blend: 6-31G*
  Basis Set: (6-31G* AUX)
    Blend: CC-PVDZ-JKFIT
  Basis Set: (6-31G* AUX)
    Blend: CC-PVDZ-JKFIT
	 Reference Energy          =    -419.1104910465423359 [Eh]
	 Singles Energy            =      -0.0000000000000000 [Eh]
	 Same-Spin Energy          =      -0.3357261037512124 [Eh]
	 Opposite-Spin Energy      =      -0.9916082030716904 [Eh]
	 Correlation Energy        =      -1.3273343068229027 [Eh]
	 Total Energy              =    -420.4378253533652128 [Eh]

	 ================> DF-SCS-MP2 Energies <==================
	-----------------------------------------------------------
	 SCS Same-Spin Scale       =       0.3333333333333333 [-]
	 SCS Opposite-Spin Scale   =       1.2000000000000000 [-]
	 SCS Same-Spin Energy      =      -0.1119087012504041 [Eh]
	 SCS Opposite-Spin Energy  =      -1.1899298436860284 [Eh]
	 SCS Correlation Energy    =      -1.3018385449364325 [Eh]
	 SCS Total Energy          =    -420.4123295914787946 [Eh]
	-----------------------------------------------------------

  -Total Gradient:
     Atom            X                  Y                   Z
    ------   -----------------  -----------------  -----------------
       1       -0.000010099269    -0.000000879534     0.000009615181
       2        0.000020032176     0.000016134280    -0.000015065835
       3       -0.000011359973    -0.000013703192     0.000007273835
       4        0.000012570986     0.000007629418    -0.000024353977
       5       -0.000013707096    -0.000016398241    -0.000004794622
       6       -0.000000063882     0.000003016426    -0.000004275034
       7        0.000000601248     0.000003228678     0.000004226498
       8       -0.000006070856     0.000002212512     0.000004059924
       9        0.000002499994     0.000002072391     0.000019080847
      10       -0.000009295987     0.000004254796     0.000010153607
      11       -0.000000873943    -0.000000478387    -0.000001988830
      12       -0.000002412120     0.000001912532    -0.000001197450
      13        0.000008491632    -0.000001020406    -0.000007702699
      14        0.000001508256     0.000002507095    -0.000003835917
      15        0.000004778165    -0.000003251838     0.000000011863
      16        0.000000447805    -0.000000187602     0.000000234415
      17        0.000004928312     0.000002359127     0.000000734767
      18       -0.000001132641    -0.000003516821     0.000004348432
      19       -0.000003265344     0.000000654436     0.000002676448
      20       -0.000004746479    -0.000009221679    -0.000006235400
      21       -0.000003898402     0.000002560144     0.000001178631
      22        0.000005219974    -0.000003516163    -0.000001068417
      23        0.000005847446     0.000003632030     0.000006923736

  **** Optimization is complete! (in 29 steps) ****
    Final optimized geometry and variables:
    Molecular point group: c1

    Geometry (in Angstrom), charge = 0, multiplicity = 1:

    C            1.582965860046    -0.439358035535    -1.348213838918
    N            0.587456500222    -0.139443230367    -0.319353768594
    C           -0.736107887142    -0.108590965516    -0.906213959757
    C           -1.844455354470    -0.179191533921     0.138524484051
    C            0.893469039863     1.107448791984     0.407624314438
    H           -0.844066308888    -0.977586959046    -1.567899311454
    H           -0.918665739147     0.784503769127    -1.537371925820
    N           -3.101769847855    -0.281438599653    -0.404849552792
    O           -1.661995697636    -0.090342436110     1.348157093911
    C            2.963472730680    -0.708176203894    -0.771693055328
    H            1.245798365296    -1.336538255652    -1.879452013315
    H            1.648256791191     0.372018057696    -2.099411087419
    C            1.430088491438     0.841779343524     1.805017357153
    H            1.599977935116     1.718770782478    -0.177092937513
    H           -0.023175950976     1.696762798944     0.497377376360
    H            2.907491107534    -1.496333566989    -0.017856680974
    H            3.642074352395    -1.030321587109    -1.567180539061
    H            1.635551875857     1.785717366070     2.321329345353
    H            0.679596778956     0.284970274354     2.365689434138
    H           -3.228180081890    -0.615904639303    -1.349834162517
    H           -3.852781916460    -0.465501757568     0.248093850464
    H            3.394209202149     0.183068438347    -0.311400192957
    H            2.352199267491     0.258999908738     1.777682006602

*** Psi4 exiting successfully. Buy a developer a beer!
