                               Psi4 1.3.2 release

  ==> Input File <==

--------------------------------------------------------------------------
molecule {
0 1
 C   -0.831709    1.853923    0.193567
 C   -0.747596    0.486031    0.357981
 N    0.223349    0.008986    1.276761
 C    1.508600   -0.557202    0.959413
 H   -0.247916   -0.547589    1.992464
 C    0.224116    2.735146   -0.276461
 N   -1.590748    4.006639    0.160668
 C   -2.027039    2.727269    0.471430
 C   -0.274389    4.000096   -0.279865
 C   -1.642998   -0.533369   -0.260282
 C   -3.049118   -0.390146   -0.135113
 C   -1.140250   -1.696158   -0.898040
 C   -3.918665   -1.349363   -0.667918
 C   -2.011965   -2.653555   -1.432400
 C   -3.406575   -2.485145   -1.324846
 C    2.330100   -1.030898    2.012567
 C    2.023429   -0.616622   -0.361357
 C    3.591154   -1.583139    1.750896
 C    3.285934   -1.169186   -0.616736
 C    4.099413   -1.663461    0.431767
 H   -2.192778    4.811806    0.256308
 O   -3.168953    2.477288    0.880238
 H   -3.461957    0.477725    0.383669
 H   -0.065496   -1.854789   -0.972871
 H   -4.995952   -1.209827   -0.567638
 H   -1.602101   -3.533689   -1.930202
 H   -4.085165   -3.230789   -1.742562
 H    1.984628   -0.974143    3.047462
 H    1.444013   -0.229265   -1.202057
 H    4.181988   -1.955908    2.590599
 H    3.637369   -1.212953   -1.650038
 N    5.377897   -2.237347    0.166881
 H    1.223711    2.436835   -0.558928
 H    0.199212    4.931394   -0.558581
 H    6.036460   -2.144517    0.940880
 H    5.815760   -1.885429   -0.685023
}
set optking {
  frozen_dihedral = ("
    1 2 3 4
    10 2 3 4
    1 2 10 11
    1 2 10 12
    3 2 10 11
    16 4 3 2
    18 20 32 35
  ")
}
set {
  geom_maxiter 400
  g_convergence GAU_LOOSE
  dynamic_level 1
}
memory 8.333333333333334GB
set_num_threads(1)
psi4_io.set_default_path("/scratch/bdw2292/Psi4-7_1_Index_0_GrowFragment_0-farH_in17")
for _ in range(1):
  try:
    set opt_coordinates both
    optimize('wb97x-d/6-311G')
    break
  except OptimizationConvergenceError:
    break
  else:
    try:
      set opt_coordinates cartesian
      optimize('wb97x-d/6-311G')
      break
    except OptimizationConvergenceError:
      pass
clean()
--------------------------------------------------------------------------

    Molecular point group: c1
  Charge       = 0
  Multiplicity = 1
  Basis Set: 6-311G
    Blend: 6-311G
  Basis Set: (6-311G AUX)
    Blend: CC-PVTZ-JKFIT
  @DF-RKS Final Energy:  -895.89460544218605
    Total Energy =                       -895.8946054421860481
    Molecular point group: c1
  Basis Set: 6-311G
    Blend: 6-311G
  Basis Set: (6-311G AUX)
    Blend: CC-PVTZ-JKFIT
  Basis Set: 6-311G
    Blend: 6-311G
  Basis Set: (6-311G AUX)
    Blend: CC-PVTZ-JKFIT
  @DF-RKS Final Energy:  -895.91665912809310
    Total Energy =                       -895.9166591280929879
  Basis Set: 6-311G
    Blend: 6-311G
  Basis Set: (6-311G AUX)
    Blend: CC-PVTZ-JKFIT
  Basis Set: 6-311G
    Blend: 6-311G
  @DF-RKS Final Energy:  -895.92865709971420
    Total Energy =                       -895.9286570997140871
  @DF-RKS Final Energy:  -895.94192439872063
    Total Energy =                       -895.9419243987207437
  @DF-RKS Final Energy:  -895.95203735424116
    Total Energy =                       -895.9520373542411562
  @DF-RKS Final Energy:  -895.95421489090609
    Total Energy =                       -895.9542148909060870
  @DF-RKS Final Energy:  -895.95443416168166
    Total Energy =                       -895.9544341616816610
  @DF-RKS Final Energy:  -895.95523353444787
    Total Energy =                       -895.9552335344477569
  @DF-RKS Final Energy:  -895.95571551388491
    Total Energy =                       -895.9557155138847975
  @DF-RKS Final Energy:  -895.95581784764511
    Total Energy =                       -895.9558178476449939
  Basis Set: (6-311G AUX)
    Blend: CC-PVTZ-JKFIT
  Basis Set: 6-311G
    Blend: 6-311G
  Basis Set: (6-311G AUX)
    Blend: CC-PVTZ-JKFIT
  @DF-RKS Final Energy:  -895.95585075177644
    Total Energy =                       -895.9558507517764383
  Basis Set: 6-311G
    Blend: 6-311G
  Basis Set: (6-311G AUX)
    Blend: CC-PVTZ-JKFIT
  Charge       = 0
  Multiplicity = 1
  Basis Set: 6-311G
    Blend: 6-311G
  Basis Set: (6-311G AUX)
    Blend: CC-PVTZ-JKFIT

    Orbital Energies [Eh]
    ---------------------

    Doubly Occupied:

       1A    -19.219605     2A    -14.472432     3A    -14.443472
       4A    -14.427351     5A    -10.403879     6A    -10.353437
       7A    -10.335831     8A    -10.327966     9A    -10.326520
      10A    -10.310914    11A    -10.304853    12A    -10.290053
      13A    -10.289964    14A    -10.289603    15A    -10.288138
      16A    -10.286954    17A    -10.285885    18A    -10.284122
      19A    -10.283951    20A    -10.283639    21A    -10.283071
      22A     -1.153942    23A     -1.067407    24A     -1.048344
      25A     -1.017954    26A     -0.967011    27A     -0.941562
      28A     -0.907960    29A     -0.870314    30A     -0.851551
      31A     -0.848599    32A     -0.833262    33A     -0.817212
      34A     -0.768234    35A     -0.721546    36A     -0.710799
      37A     -0.703445    38A     -0.695281    39A     -0.686055
      40A     -0.644424    41A     -0.627515    42A     -0.625230
      43A     -0.606872    44A     -0.603647    45A     -0.592570
      46A     -0.564341    47A     -0.558729    48A     -0.542388
      49A     -0.533023    50A     -0.531207    51A     -0.526659
      52A     -0.517935    53A     -0.513568    54A     -0.511954
      55A     -0.506039    56A     -0.502309    57A     -0.485466
      58A     -0.476907    59A     -0.468570    60A     -0.457395
      61A     -0.438864    62A     -0.428310    63A     -0.425637
      64A     -0.416829    65A     -0.414406    66A     -0.383016
      67A     -0.348054    68A     -0.340656    69A     -0.328937
      70A     -0.326428    71A     -0.322766    72A     -0.280317
      73A     -0.248075

  @DF-RKS Final Energy:  -895.95586267537703

   => Energetics <=

    Nuclear Repulsion Energy =           1539.3100567654089446
    One-Electron Energy =               -4271.9027846054932525
    Two-Electron Energy =                1924.3978766079278557
    DFT Exchange-Correlation Energy =     -87.7349300753160435
    Empirical Dispersion Energy =          -0.0260813679047589
    VV10 Nonlocal Energy =                  0.0000000000000000
    Total Energy =                       -895.9558626753770341

  Dipole Moment: [D]
     X:     2.8205      Y:     0.9161      Z:     1.7173     Total:     3.4269

    Molecular point group: c1
  Basis Set: 6-311G
    Blend: 6-311G
  Basis Set: (6-311G AUX)
    Blend: CC-PVTZ-JKFIT

  -Total Gradient:
     Atom            X                  Y                   Z
    ------   -----------------  -----------------  -----------------
       1       -0.000128793525     0.000174671858     0.005619761838
       2       -0.003430920949    -0.000695007147    -0.004802439516
       3        0.002737588985     0.012426539512     0.003811692158
       4       -0.005618150877    -0.015462660541    -0.002629363595
       5       -0.000002167048     0.000039277962     0.000048437495
       6       -0.000028945414    -0.000258495286     0.000078207031
       7       -0.000138309814    -0.000043549214     0.000002023964
       8        0.000080231287     0.000256128703     0.000240272848
       9        0.000025299782     0.000051195335    -0.000329346256
      10        0.004791619665    -0.001117287508    -0.003382889409
      11       -0.000171745171    -0.001459202561     0.001591946666
      12       -0.000100720123     0.001182637633    -0.001344509675
      13        0.000051279576     0.000063338987    -0.000043612183
      14        0.000011733638    -0.000060027369    -0.000057893556
      15       -0.000076243306    -0.000009994618     0.000037314329
      16        0.001758731894     0.004888515218     0.001046978438
      17        0.000017446668     0.000033181234    -0.000072891261
      18       -0.000423835838    -0.001350050326    -0.000453703162
      19       -0.000078407859     0.000026529741    -0.000059443439
      20        0.000929807908     0.002577458085     0.000576417773
      21       -0.000114220469     0.000038438072     0.000036065033
      22        0.000246015448     0.000069329893     0.000086888249
      23        0.000010142605     0.000021944580     0.000009656710
      24        0.000075272295     0.000015734933    -0.000011642919
      25       -0.000041108705    -0.000014065185     0.000011192678
      26        0.000017802585     0.000007341541    -0.000013555243
      27       -0.000005251057     0.000007739907    -0.000014728875
      28        0.000010634328    -0.000018482161     0.000007017244
      29       -0.000040125037    -0.000009053324    -0.000037426934
      30        0.000019686021    -0.000007062828     0.000021694591
      31        0.000003480140     0.000022864708     0.000000700744
      32       -0.000719614896    -0.003159972461     0.000258029758
      33       -0.000065663131    -0.000079581268    -0.000036787650
      34       -0.000024355650    -0.000000271197    -0.000065900319
      35        0.000416938460     0.001905760950    -0.000332013523
      36       -0.000015679756    -0.000088869232    -0.000004807025

  **** Optimization is complete! (in 12 steps) ****
    Final optimized geometry and variables:
    Molecular point group: c1

    Geometry (in Angstrom), charge = 0, multiplicity = 1:

    C           -1.003564434790     1.607684422995     0.485700037023
    C           -0.803246462256     0.272603398947     0.471795022207
    N            0.219221261572    -0.214603320570     1.360810170229
    C            1.515056626402    -0.572849777989     0.905166219641
    H           -0.147772604234    -0.857467271334     2.048877812449
    C           -0.271188032641     2.582441933147     1.294944098953
    N           -1.685833023324     3.724357129849    -0.043549002745
    C           -1.934850580591     2.404538235583    -0.385169472596
    C           -0.699930497739     3.811452479093     0.954850436326
    C           -1.587462184793    -0.737908844288    -0.284367945623
    C           -2.985184685301    -0.750738630996    -0.176730589804
    C           -0.963028276964    -1.741187418991    -1.039241922743
    C           -3.740097780271    -1.723358380514    -0.821516726779
    C           -1.722162386690    -2.707541889348    -1.692657593686
    C           -3.111203230981    -2.702623350042    -1.586886043700
    C            2.440300422879    -1.088014093678     1.821329769323
    C            1.965934153159    -0.271586726700    -0.382793073219
    C            3.739201116322    -1.389054371521     1.435836544569
    C            3.278209661068    -0.541499635575    -0.761020994288
    C            4.186682100144    -1.116202974567     0.134930718264
    H           -2.170326668958     4.490825745452    -0.468512561343
    O           -2.754849988679     2.042083632074    -1.240512718397
    H           -3.477470970469     0.015922363767     0.403338879382
    H            0.112864096474    -1.774359558337    -1.117132639503
    H           -4.817527034163    -1.713288134000    -0.729966269397
    H           -1.225235496490    -3.466301856030    -2.281834121679
    H           -3.697939285169    -3.456618733356    -2.093952402440
    H            2.130521913198    -1.273053682600     2.842602565112
    H            1.298000521132     0.197078830932    -1.093370962179
    H            4.420915393555    -1.829329182810     2.152829069844
    H            3.599954751901    -0.293363571692    -1.765058319790
    N            5.484999162699    -1.443574331374    -0.255821302254
    H            0.475433668206     2.325476322921     2.021952147574
    H           -0.397499891063     4.771510235124     1.334606543351
    H            6.215883328734    -1.462439701037     0.429378127849
    H            5.769130007076    -1.260551475821    -1.199098122604

*** Psi4 exiting successfully. Buy a developer a beer!
