                               Psi4 1.3.2 release

  ==> Input File <==

--------------------------------------------------------------------------
molecule {
0 1
 C   -0.658782    1.365965   -0.052375
 C   -0.800834    0.010006    0.158021
 N    0.241252   -0.754175    0.742026
 C    1.671165   -0.793180    0.578867
 H   -0.025414   -0.979120    1.701063
 C   -0.408831    2.383214    0.953330
 N   -0.565911    3.412815   -1.050676
 C   -0.754227    2.077207   -1.375689
 C   -0.361670    3.581275    0.311934
 C   -2.052542   -0.744861   -0.100718
 C   -3.291966   -0.308985    0.431063
 C   -2.008816   -1.960495   -0.827108
 C   -4.457634   -1.055914    0.216355
 C   -3.175787   -2.704174   -1.040028
 C   -4.408105   -2.255718   -0.522479
 C    2.414225   -1.742707    1.327018
 C    2.383397    0.042623   -0.318819
 C    3.808036   -1.824442    1.208821
 C    3.778146   -0.045189   -0.432965
 C    4.523844   -0.969993    0.337082
 H   -0.584593    4.134973   -1.756494
 O   -0.945747    1.678191   -2.523426
 H   -3.338115    0.612476    1.013699
 H   -1.055795   -2.315681   -1.221622
 H   -5.404483   -0.704059    0.628729
 H   -3.124333   -3.634534   -1.607263
 H   -5.317269   -2.835826   -0.690243
 H    1.906297   -2.429968    2.008411
 H    1.864280    0.765461   -0.947513
 H    4.339459   -2.569070    1.805664
 H    4.286845    0.616941   -1.137288
 N    5.942925   -1.056959    0.219578
 H   -0.280936    2.213623    2.012611
 H   -0.196891    4.573681    0.708795
 H    6.402753   -1.391504    1.066970
 H    6.381821   -0.183242   -0.072698
}
set optking {
  frozen_dihedral = ("
    1 2 3 4
    10 2 3 4
    1 2 10 11
    1 2 10 12
    3 2 10 11
    16 4 3 2
    18 20 32 35
  ")
}
set {
  geom_maxiter 400
  g_convergence GAU_LOOSE
  dynamic_level 1
}
memory 8.333333333333334GB
set_num_threads(1)
psi4_io.set_default_path("/scratch/bdw2292/Psi4-7_1_Index_0_GrowFragment_0-farH_in17")
for _ in range(1):
  try:
    set opt_coordinates both
    optimize('wb97x-d/6-311G')
    break
  except OptimizationConvergenceError:
    break
  else:
    try:
      set opt_coordinates cartesian
      optimize('wb97x-d/6-311G')
      break
    except OptimizationConvergenceError:
      pass
clean()
--------------------------------------------------------------------------

    Molecular point group: c1
  Charge       = 0
  Multiplicity = 1
  Basis Set: 6-311G
    Blend: 6-311G
  Basis Set: (6-311G AUX)
    Blend: CC-PVTZ-JKFIT
  @DF-RKS Final Energy:  -895.90424162793397
    Total Energy =                       -895.9042416279339704
    Molecular point group: c1
  Basis Set: 6-311G
    Blend: 6-311G
  Basis Set: (6-311G AUX)
    Blend: CC-PVTZ-JKFIT
  Basis Set: 6-311G
    Blend: 6-311G
  Basis Set: (6-311G AUX)
    Blend: CC-PVTZ-JKFIT
  @DF-RKS Final Energy:  -895.93115114190311
    Total Energy =                       -895.9311511419031149
  Basis Set: 6-311G
    Blend: 6-311G
  Basis Set: (6-311G AUX)
    Blend: CC-PVTZ-JKFIT
  Basis Set: 6-311G
    Blend: 6-311G
  @DF-RKS Final Energy:  -895.94778089876422
    Total Energy =                       -895.9477808987642220
  @DF-RKS Final Energy:  -895.95887144963365
    Total Energy =                       -895.9588714496335342
  @DF-RKS Final Energy:  -895.96437957713624
    Total Energy =                       -895.9643795771362420
  @DF-RKS Final Energy:  -895.95887145319239
    Total Energy =                       -895.9588714531923870
  @DF-RKS Final Energy:  -895.96360000740094
    Total Energy =                       -895.9636000074008280
  @DF-RKS Final Energy:  -895.96580936107364
    Total Energy =                       -895.9658093610736387
  @DF-RKS Final Energy:  -895.96753605206084
    Total Energy =                       -895.9675360520608365
  @DF-RKS Final Energy:  -895.96892397871181
    Total Energy =                       -895.9689239787119277
  @DF-RKS Final Energy:  -895.96998213107531
    Total Energy =                       -895.9699821310753123
  @DF-RKS Final Energy:  -895.97071608736712
    Total Energy =                       -895.9707160873670091
  @DF-RKS Final Energy:  -895.97114697282871
    Total Energy =                       -895.9711469728287057
  @DF-RKS Final Energy:  -895.97126357830598
    Total Energy =                       -895.9712635783060932
  @DF-RKS Final Energy:  -895.97110849829835
    Total Energy =                       -895.9711084982984630
  Basis Set: (6-311G AUX)
    Blend: CC-PVTZ-JKFIT
  Basis Set: 6-311G
    Blend: 6-311G
  Basis Set: (6-311G AUX)
    Blend: CC-PVTZ-JKFIT
  @DF-RKS Final Energy:  -895.97127587462046
    Total Energy =                       -895.9712758746204599
  Basis Set: 6-311G
    Blend: 6-311G
  Basis Set: (6-311G AUX)
    Blend: CC-PVTZ-JKFIT
  Charge       = 0
  Multiplicity = 1
  Basis Set: 6-311G
    Blend: 6-311G
  Basis Set: (6-311G AUX)
    Blend: CC-PVTZ-JKFIT

    Orbital Energies [Eh]
    ---------------------

    Doubly Occupied:

       1A    -19.194223     2A    -14.473142     3A    -14.457659
       4A    -14.435481     5A    -10.383281     6A    -10.359013
       7A    -10.337261     8A    -10.336348     9A    -10.321019
      10A    -10.307459    11A    -10.296626    12A    -10.296568
      13A    -10.294064    14A    -10.292953    15A    -10.292902
      16A    -10.290755    17A    -10.290564    18A    -10.290537
      19A    -10.289046    20A    -10.289007    21A    -10.275870
      22A     -1.130443    23A     -1.070960    24A     -1.049279
      25A     -1.026928    26A     -0.972876    27A     -0.949312
      28A     -0.903405    29A     -0.871146    30A     -0.857731
      31A     -0.854706    32A     -0.835166    33A     -0.816720
      34A     -0.765239    35A     -0.730361    36A     -0.717283
      37A     -0.704328    38A     -0.702434    39A     -0.678610
      40A     -0.653909    41A     -0.638773    42A     -0.626000
      43A     -0.610069    44A     -0.602807    45A     -0.596018
      46A     -0.563671    47A     -0.557350    48A     -0.541570
      49A     -0.538146    50A     -0.529359    51A     -0.523107
      52A     -0.518225    53A     -0.516157    54A     -0.510881
      55A     -0.507893    56A     -0.492331    57A     -0.490561
      58A     -0.480045    59A     -0.470376    60A     -0.458734
      61A     -0.449989    62A     -0.434302    63A     -0.432188
      64A     -0.430304    65A     -0.399579    66A     -0.389262
      67A     -0.344244    68A     -0.337743    69A     -0.334846
      70A     -0.328514    71A     -0.314198    72A     -0.275329
      73A     -0.245563

  @DF-RKS Final Energy:  -895.97130241226739

   => Energetics <=

    Nuclear Repulsion Energy =           1535.2181149694099531
    One-Electron Energy =               -4263.5790358000158449
    Two-Electron Energy =                1920.1635535723512476
    DFT Exchange-Correlation Energy =     -87.7481739609993951
    Empirical Dispersion Energy =          -0.0257611930130751
    VV10 Nonlocal Energy =                  0.0000000000000000
    Total Energy =                       -895.9713024122672778

  Dipole Moment: [D]
     X:     4.3708      Y:     0.2254      Z:     2.0625     Total:     4.8382

    Molecular point group: c1
  Basis Set: 6-311G
    Blend: 6-311G
  Basis Set: (6-311G AUX)
    Blend: CC-PVTZ-JKFIT

  -Total Gradient:
     Atom            X                  Y                   Z
    ------   -----------------  -----------------  -----------------
       1        0.004417111985     0.000492101823     0.000584933803
       2       -0.005918219306    -0.004788727876    -0.005363888172
       3        0.000478572279     0.005494546652     0.003556236059
       4        0.000249671487     0.002936218114     0.002714768493
       5        0.000036691625    -0.000039306698    -0.000129606776
       6        0.000043102419    -0.000089970371     0.000125968411
       7       -0.000022106918     0.000133510589     0.000127061099
       8        0.000201047124    -0.000113757524     0.000025373791
       9        0.000084223869     0.000007183914    -0.000118275837
      10        0.000478527019    -0.000637390310     0.000194816681
      11        0.000360231184    -0.000658569545     0.001271145134
      12       -0.000035946405     0.000017410697    -0.000186898879
      13       -0.000008785236    -0.000043078331    -0.000004194326
      14        0.000032630972     0.000001498144    -0.000006259053
      15       -0.000005283159     0.000017742071     0.000013862739
      16       -0.000183537233    -0.002948328276    -0.002605191036
      17        0.000052644720    -0.000058992526    -0.000086266857
      18       -0.000177788307    -0.001307949781    -0.001070340436
      19       -0.000045327514     0.000001259184    -0.000015881675
      20        0.000291125780     0.002801840684     0.001764627170
      21       -0.000040811319     0.000019878191    -0.000020597998
      22       -0.000087145444     0.000086475436    -0.000073275701
      23        0.000007506641     0.000004765716     0.000003740562
      24        0.000001625832    -0.000012673937    -0.000018394400
      25        0.000009497239    -0.000000281265     0.000008888830
      26        0.000010033230    -0.000005663460    -0.000001248906
      27        0.000010022388    -0.000005283550     0.000004514753
      28        0.000003885969     0.000013618433     0.000005357967
      29       -0.000012378441     0.000010441523     0.000015352914
      30        0.000005596655     0.000002990795     0.000005406619
      31        0.000011486277     0.000007515216     0.000001201721
      32       -0.000145947544    -0.003844902310    -0.001222911787
      33       -0.000006572440    -0.000008282819     0.000031000299
      34       -0.000003488408     0.000003565918    -0.000001177589
      35        0.000074778527     0.002310954720     0.000444789226
      36        0.000012319749     0.000027416532     0.000039535042

  **** Optimization is complete! (in 11 steps) ****
    Final optimized geometry and variables:
    Molecular point group: c1

    Geometry (in Angstrom), charge = 0, multiplicity = 1:

    C           -0.823448068853     1.292840600654    -0.063415657654
    C           -0.747819362963    -0.021129728385     0.305609186038
    N            0.380309073518    -0.551905019923     0.907427708083
    C            1.754944317967    -0.352958456129     0.609982232455
    H            0.203244267893    -1.396711453534     1.426662343651
    C            0.049976723194     2.397894195576     0.328997446710
    N           -1.570441718807     3.231990897814    -0.990765701926
    C           -1.878269355012     1.875385150051    -0.929028014481
    C           -0.432598223710     3.527054249004    -0.228860770387
    C           -1.864112059711    -0.995991552880     0.209024301387
    C           -3.119222765730    -0.701801155850     0.748159755077
    C           -1.639519889214    -2.253376691996    -0.363078589977
    C           -4.135696712339    -1.648668272334     0.711679504656
    C           -2.661713130800    -3.197402642256    -0.407995957086
    C           -3.910088293690    -2.896810947800     0.132168058440
    C            2.689391700854    -1.061437205320     1.374112788059
    C            2.217681532736     0.386553395682    -0.481525444169
    C            4.044883010913    -1.008150004647     1.084502988709
    C            3.578322101866     0.458563094906    -0.757854374606
    C            4.519376738777    -0.227179379427     0.021028371255
    H           -2.114939804841     3.880122408079    -1.525362018749
    O           -2.832419149934     1.348413328124    -1.530957379033
    H           -3.290978717068     0.271877471185     1.184238724304
    H           -0.670832879816    -2.479085190218    -0.790385129127
    H           -5.104339446052    -1.412665363007     1.129944080505
    H           -2.485882775186    -4.160780045591    -0.866817896320
    H           -4.704506062364    -3.630116536720     0.099880389855
    H            2.350204215014    -1.666036895476     2.206988413724
    H            1.523399918328     0.911876435654    -1.117690823485
    H            4.742826428782    -1.583268794612     1.679253798252
    H            3.912404006023     1.052409429772    -1.599473525474
    N            5.876810345988    -0.187662443213    -0.281630948062
    H            0.894988221448     2.329054603588     0.989247441514
    H           -0.082026191750     4.539761014664    -0.135048584447
    H            6.550051326830    -0.331944545183     0.446242783775
    H            6.185844358661     0.351555842339    -1.067650025378

*** Psi4 exiting successfully. Buy a developer a beer!
