                               Psi4 1.3.2 release

  ==> Input File <==

--------------------------------------------------------------------------
molecule {
0 1
 C   -0.722057    1.587242    0.003530
 C   -0.760478    0.266645    0.399087
 N    0.265911   -0.261677    1.222805
 C    1.609549   -0.561181    0.818328
 H    0.207984    0.073626    2.184363
 C   -0.934777    2.756335    0.837894
 N   -0.546483    3.466940   -1.271304
 C   -0.468386    2.086574   -1.393646
 C   -0.819456    3.847834    0.035066
 C   -1.872672   -0.669698    0.106128
 C   -3.214082   -0.319446    0.401055
 C   -1.600314   -1.957993   -0.417361
 C   -4.253936   -1.225768    0.157622
 C   -2.642179   -2.862274   -0.657027
 C   -3.975473   -2.501726   -0.373526
 C    2.067928   -1.896699    0.891954
 C    2.506917    0.435218    0.366532
 C    3.375671   -2.226829    0.511387
 C    3.813092    0.099753   -0.015285
 C    4.279439   -1.236498    0.052820
 H   -0.415783    4.074590   -2.067386
 O   -0.243742    1.511241   -2.457532
 H   -3.436850    0.661983    0.822638
 H   -0.570076   -2.242035   -0.637256
 H   -5.281516   -0.937909    0.384841
 H   -2.415474   -3.848239   -1.065066
 H   -4.786813   -3.206770   -0.562733
 H    1.399151   -2.684198    1.246156
 H    2.192885    1.478462    0.307631
 H    3.690249   -3.270933    0.574497
 H    4.473463    0.894331   -0.369510
 N    5.607234   -1.575837   -0.342328
 H   -1.144709    2.755995    1.897933
 H   -0.909687    4.898077    0.277175
 H    5.980607   -2.394892    0.138072
 H    6.270631   -0.805605   -0.254916
}
set optking {
  frozen_dihedral = ("
    16 4 3 2
    1 2 10 11
    1 2 10 12
    3 2 10 11
    1 2 3 4
    10 2 3 4
    18 20 32 35
  ")
}
set {
  geom_maxiter 400
  g_convergence GAU_LOOSE
  dynamic_level 1
}
memory 8.333333333333334GB
set_num_threads(1)
psi4_io.set_default_path("/scratch/bdw2292/Psi4-7_1_Index_0_GrowFragment_0-farH_in17")
for _ in range(1):
  try:
    set opt_coordinates both
    optimize('wb97x-d/6-311G')
    break
  except OptimizationConvergenceError:
    break
  else:
    try:
      set opt_coordinates cartesian
      optimize('wb97x-d/6-311G')
      break
    except OptimizationConvergenceError:
      pass
clean()
--------------------------------------------------------------------------

    Molecular point group: c1
  Charge       = 0
  Multiplicity = 1
  Basis Set: 6-311G
    Blend: 6-311G
  Basis Set: (6-311G AUX)
    Blend: CC-PVTZ-JKFIT
  @DF-RKS Final Energy:  -895.86855114522029
    Total Energy =                       -895.8685511452204082
    Molecular point group: c1
  Basis Set: 6-311G
    Blend: 6-311G
  Basis Set: (6-311G AUX)
    Blend: CC-PVTZ-JKFIT
  Basis Set: 6-311G
    Blend: 6-311G
  Basis Set: (6-311G AUX)
    Blend: CC-PVTZ-JKFIT
  @DF-RKS Final Energy:  -895.89771933847805
    Total Energy =                       -895.8977193384780549
  Basis Set: 6-311G
    Blend: 6-311G
  Basis Set: (6-311G AUX)
    Blend: CC-PVTZ-JKFIT
  Basis Set: 6-311G
    Blend: 6-311G
  @DF-RKS Final Energy:  -895.91307788792085
    Total Energy =                       -895.9130778879207355
  @DF-RKS Final Energy:  -895.93659472194838
    Total Energy =                       -895.9365947219483814
  @DF-RKS Final Energy:  -895.94546587451100
    Total Energy =                       -895.9454658745110009
  @DF-RKS Final Energy:  -895.94856638400029
    Total Energy =                       -895.9485663840004008
  @DF-RKS Final Energy:  -895.95167330440802
    Total Energy =                       -895.9516733044080183
  @DF-RKS Final Energy:  -895.95735851055917
    Total Energy =                       -895.9573585105591746
  @DF-RKS Final Energy:  -895.96050317377126
    Total Energy =                       -895.9605031737713716
  @DF-RKS Final Energy:  -895.96077820476603
    Total Energy =                       -895.9607782047660294
  @DF-RKS Final Energy:  -895.96078931697571
    Total Energy =                       -895.9607893169757062
  Basis Set: (6-311G AUX)
    Blend: CC-PVTZ-JKFIT
  Basis Set: 6-311G
    Blend: 6-311G
  Basis Set: (6-311G AUX)
    Blend: CC-PVTZ-JKFIT
  @DF-RKS Final Energy:  -895.96100394380142
    Total Energy =                       -895.9610039438014155
  Basis Set: 6-311G
    Blend: 6-311G
  Basis Set: (6-311G AUX)
    Blend: CC-PVTZ-JKFIT
  Charge       = 0
  Multiplicity = 1
  Basis Set: 6-311G
    Blend: 6-311G
  Basis Set: (6-311G AUX)
    Blend: CC-PVTZ-JKFIT

    Orbital Energies [Eh]
    ---------------------

    Doubly Occupied:

       1A    -19.202798     2A    -14.463576     3A    -14.456678
       4A    -14.434525     5A    -10.390265     6A    -10.354299
       7A    -10.336786     8A    -10.330422     9A    -10.327334
      10A    -10.305485    11A    -10.296752    12A    -10.295203
      13A    -10.294751    14A    -10.293759    15A    -10.292821
      16A    -10.292360    17A    -10.290564    18A    -10.288881
      19A    -10.287814    20A    -10.286898    21A    -10.281503
      22A     -1.138460    23A     -1.059932    24A     -1.054360
      25A     -1.025958    26A     -0.971022    27A     -0.946380
      28A     -0.904894    29A     -0.870690    30A     -0.855659
      31A     -0.854141    32A     -0.833039    33A     -0.818402
      34A     -0.764651    35A     -0.726602    36A     -0.712198
      37A     -0.705604    38A     -0.701377    39A     -0.682552
      40A     -0.648135    41A     -0.632176    42A     -0.627195
      43A     -0.608641    44A     -0.601380    45A     -0.597801
      46A     -0.564300    47A     -0.558685    48A     -0.540797
      49A     -0.537875    50A     -0.530805    51A     -0.526544
      52A     -0.520212    53A     -0.517988    54A     -0.514569
      55A     -0.506855    56A     -0.495212    57A     -0.484265
      58A     -0.476844    59A     -0.470980    60A     -0.458567
      61A     -0.445648    62A     -0.433693    63A     -0.430970
      64A     -0.417713    65A     -0.404442    66A     -0.381391
      67A     -0.347396    68A     -0.336870    69A     -0.334101
      70A     -0.329162    71A     -0.319042    72A     -0.276327
      73A     -0.254469

  @DF-RKS Final Energy:  -895.96104284739693

   => Energetics <=

    Nuclear Repulsion Energy =           1540.0890821128355128
    One-Electron Energy =               -4273.3491956326324726
    Two-Electron Energy =                1925.0652466692470171
    DFT Exchange-Correlation Energy =     -87.7398491398648872
    Empirical Dispersion Energy =          -0.0263268569821563
    VV10 Nonlocal Energy =                  0.0000000000000000
    Total Energy =                       -895.9610428473969250

  Dipole Moment: [D]
     X:     3.5188      Y:    -0.2666      Z:     2.1363     Total:     4.1252

    Molecular point group: c1
  Basis Set: 6-311G
    Blend: 6-311G
  Basis Set: (6-311G AUX)
    Blend: CC-PVTZ-JKFIT

  -Total Gradient:
     Atom            X                  Y                   Z
    ------   -----------------  -----------------  -----------------
       1        0.002252166606     0.000351929778     0.001171083296
       2       -0.003028846023    -0.006077020925    -0.004199400509
       3        0.001018914726     0.007380336720     0.000299068344
       4        0.001089906300    -0.000384392544     0.004843537636
       5        0.000137199634     0.000159350927    -0.000142827187
       6       -0.000223275567    -0.000017857928    -0.000013090232
       7        0.000146409649    -0.000228323933     0.000205348597
       8        0.000098852464     0.000126581443     0.000049114243
       9        0.000070244791     0.000218919224     0.000042001405
      10       -0.000010108829     0.000073965513     0.000315700758
      11        0.000181782559    -0.000327424606     0.001330521994
      12       -0.000111729505     0.000013370278    -0.000584507268
      13        0.000008023004    -0.000036516352    -0.000047080256
      14        0.000040863894     0.000045958658     0.000029644625
      15        0.000028799320     0.000021142987     0.000004324052
      16       -0.001124501152    -0.001142525605    -0.003572926982
      17       -0.000019241947    -0.000087615501    -0.000020661356
      18       -0.000680453894    -0.000484600784    -0.001619981858
      19       -0.000124270660     0.000071972012     0.000130513202
      20        0.001424793584     0.001250042311     0.002921522484
      21        0.000039667119    -0.000035067120    -0.000035758120
      22       -0.000240151071    -0.000182975803     0.000080157941
      23        0.000023207908     0.000055761711     0.000005960547
      24       -0.000033388457     0.000010785869     0.000029652852
      25        0.000065929142     0.000002120555    -0.000015535325
      26       -0.000015533832     0.000005903459    -0.000000867129
      27        0.000035089466    -0.000011277055    -0.000004220234
      28        0.000055877644    -0.000009757920    -0.000013235160
      29       -0.000049122665     0.000091951034     0.000046848034
      30        0.000004127030     0.000003607487     0.000000943675
      31       -0.000081367191    -0.000022790131     0.000034961765
      32       -0.001760719018    -0.002305866797    -0.002705091174
      33        0.000014192000    -0.000017836766    -0.000065822090
      34        0.000026164304     0.000022365653    -0.000006886968
      35        0.001065411634     0.001667097354     0.001428775674
      36       -0.000206885318    -0.000180332194     0.000068516985

  **** Optimization is complete! (in 13 steps) ****
    Final optimized geometry and variables:
    Molecular point group: c1

    Geometry (in Angstrom), charge = 0, multiplicity = 1:

    C           -0.592403384376     1.640557447495    -0.181836059004
    C           -0.726992463259     0.421219543781     0.400434283200
    N            0.224157313551    -0.027596757000     1.339220923628
    C            1.553469311091    -0.453966346455     1.004825743436
    H           -0.190203958044    -0.646321817967     2.020739234621
    C            0.275536119768     2.743306279395     0.231916445224
    N           -0.884181562092     3.419498938873    -1.574952431300
    C           -1.353018640800     2.127108380951    -1.367532308673
    C            0.062684046855     3.778463343734    -0.604438582677
    C           -1.880422174133    -0.488860665323     0.204755696067
    C           -3.192389814217    -0.038808161465     0.374290847411
    C           -1.650186428500    -1.837717064696    -0.094799723636
    C           -4.258329389676    -0.921472502105     0.241266171666
    C           -2.718406745832    -2.717135619070    -0.239253373763
    C           -4.024037698410    -2.260392263386    -0.067917328610
    C            1.910076742296    -1.779073381299     1.283961294499
    C            2.482150096938     0.353432009795     0.349737370389
    C            3.166833601006    -2.271572885346     0.962749696766
    C            3.740480544517    -0.138886514357     0.019753613500
    C            4.113654535767    -1.452424270011     0.331131312747
    H           -1.206402281499     3.991041802459    -2.331321384943
    O           -2.195586183290     1.561525703786    -2.084490988271
    H           -3.368125569784     1.003386412558     0.600953619423
    H           -0.635039019704    -2.185551232424    -0.236825223416
    H           -5.270554916468    -0.565120985087     0.372701060668
    H           -2.534066624019    -3.752961996988    -0.489669235424
    H           -4.855007735269    -2.944062549950    -0.177160309971
    H            1.188503622977    -2.438295439705     1.752207899658
    H            2.232046485528     1.367728912504     0.085641279055
    H            3.409533369219    -3.304771531595     1.175892096412
    H            4.444991047364     0.511464421135    -0.483538530301
    N            5.360095677210    -1.954021653180    -0.026248007327
    H            0.891125317963     2.745567954468     1.113135483579
    H            0.476770496795     4.771164611440    -0.584863186287
    H            5.764331118730    -2.702729809448     0.502273810120
    H            6.000806196470    -1.363941934571    -0.520838707943

*** Psi4 exiting successfully. Buy a developer a beer!
