                               Psi4 1.3.2 release

  ==> Input File <==

--------------------------------------------------------------------------
molecule {
0 1
 C   -0.664915    1.457276    0.508611
 C   -0.778176    0.083343    0.483800
 N    0.175000   -0.672710    1.215663
 C    1.549019   -0.843786    0.836671
 H   -0.230997   -1.520499    1.612079
 C   -0.635395    2.314292    1.680811
 N   -0.478231    3.631521   -0.147941
 C   -0.560334    2.357619   -0.693035
 C   -0.521606    3.595229    1.239182
 C   -1.885906   -0.662780   -0.169752
 C   -3.234197   -0.326993    0.113552
 C   -1.621648   -1.751683   -1.035803
 C   -4.284158   -1.053198   -0.462416
 C   -2.673547   -2.478601   -1.607016
 C   -4.011186   -2.132992   -1.326407
 C    2.526946    0.053671    1.326703
 C    1.967776   -1.905205    0.000648
 C    3.874711   -0.092713    0.972044
 C    3.316543   -2.044160   -0.355046
 C    4.298728   -1.136456    0.112652
 H   -0.399398    4.451295   -0.732524
 O   -0.548757    2.133932   -1.903842
 H   -3.455814    0.500723    0.789195
 H   -0.590653   -2.016749   -1.267770
 H   -5.315305   -0.779331   -0.234025
 H   -2.450779   -3.314274   -2.272092
 H   -4.830123   -2.697732   -1.775302
 H    2.235275    0.873256    1.986847
 H    1.245341   -2.633227   -0.372442
 H    4.601918    0.617047    1.372478
 H    3.602419   -2.875921   -1.002669
 N    5.671214   -1.282607   -0.249143
 H   -0.693111    1.988072    2.709316
 H   -0.467458    4.518922    1.799111
 H    6.184675   -0.400363   -0.251075
 H    5.807893   -1.745567   -1.148426
}
set optking {
  frozen_dihedral = ("
    16 4 3 2
    1 2 10 11
    1 2 10 12
    3 2 10 11
    1 2 3 4
    10 2 3 4
    18 20 32 35
  ")
}
set {
  geom_maxiter 400
  g_convergence GAU_LOOSE
  dynamic_level 1
}
memory 8.333333333333334GB
set_num_threads(1)
psi4_io.set_default_path("/scratch/bdw2292/Psi4-7_1_Index_0_GrowFragment_0-farH_in17")
for _ in range(1):
  try:
    set opt_coordinates both
    optimize('wb97x-d/6-311G')
    break
  except OptimizationConvergenceError:
    break
  else:
    try:
      set opt_coordinates cartesian
      optimize('wb97x-d/6-311G')
      break
    except OptimizationConvergenceError:
      pass
clean()
--------------------------------------------------------------------------

    Molecular point group: c1
  Charge       = 0
  Multiplicity = 1
  Basis Set: 6-311G
    Blend: 6-311G
  Basis Set: (6-311G AUX)
    Blend: CC-PVTZ-JKFIT
  @DF-RKS Final Energy:  -895.91472544099179
    Total Energy =                       -895.9147254409917878
    Molecular point group: c1
  Basis Set: 6-311G
    Blend: 6-311G
  Basis Set: (6-311G AUX)
    Blend: CC-PVTZ-JKFIT
  Basis Set: 6-311G
    Blend: 6-311G
  Basis Set: (6-311G AUX)
    Blend: CC-PVTZ-JKFIT
  @DF-RKS Final Energy:  -895.93605587192258
    Total Energy =                       -895.9360558719224628
  Basis Set: 6-311G
    Blend: 6-311G
  Basis Set: (6-311G AUX)
    Blend: CC-PVTZ-JKFIT
  Basis Set: 6-311G
    Blend: 6-311G
  @DF-RKS Final Energy:  -895.94107703468796
    Total Energy =                       -895.9410770346880781
  @DF-RKS Final Energy:  -895.95480352967650
    Total Energy =                       -895.9548035296766102
  @DF-RKS Final Energy:  -895.95611928032906
    Total Energy =                       -895.9561192803290623
  @DF-RKS Final Energy:  -895.95633067788742
    Total Energy =                       -895.9563306778874221
  @DF-RKS Final Energy:  -895.95664714794361
    Total Energy =                       -895.9566471479434995
  @DF-RKS Final Energy:  -895.95689496572277
    Total Energy =                       -895.9568949657227677
  @DF-RKS Final Energy:  -895.95693067891955
    Total Energy =                       -895.9569306789195480
  Basis Set: (6-311G AUX)
    Blend: CC-PVTZ-JKFIT
  Basis Set: 6-311G
    Blend: 6-311G
  Basis Set: (6-311G AUX)
    Blend: CC-PVTZ-JKFIT
  @DF-RKS Final Energy:  -895.95694133332154
    Total Energy =                       -895.9569413333215380
  Basis Set: 6-311G
    Blend: 6-311G
  Basis Set: (6-311G AUX)
    Blend: CC-PVTZ-JKFIT
  Charge       = 0
  Multiplicity = 1
  Basis Set: 6-311G
    Blend: 6-311G
  Basis Set: (6-311G AUX)
    Blend: CC-PVTZ-JKFIT

    Orbital Energies [Eh]
    ---------------------

    Doubly Occupied:

       1A    -19.200044     2A    -14.460912     3A    -14.449899
       4A    -14.439563     5A    -10.387210     6A    -10.351730
       7A    -10.342548     8A    -10.327146     9A    -10.324084
      10A    -10.305770    11A    -10.296949    12A    -10.295726
      13A    -10.293586    14A    -10.293475    15A    -10.292646
      16A    -10.292320    17A    -10.292049    18A    -10.291318
      19A    -10.290162    20A    -10.288733    21A    -10.278739
      22A     -1.135726    23A     -1.054815    24A     -1.048454
      25A     -1.030771    26A     -0.970650    27A     -0.947896
      28A     -0.901729    29A     -0.869409    30A     -0.858080
      31A     -0.854065    32A     -0.833234    33A     -0.816575
      34A     -0.761535    35A     -0.726231    36A     -0.711367
      37A     -0.706682    38A     -0.701627    39A     -0.680777
      40A     -0.645420    41A     -0.631888    42A     -0.626179
      43A     -0.613862    44A     -0.599258    45A     -0.597522
      46A     -0.564703    47A     -0.556925    48A     -0.540487
      49A     -0.538224    50A     -0.531814    51A     -0.529431
      52A     -0.521962    53A     -0.517355    54A     -0.513288
      55A     -0.506297    56A     -0.492999    57A     -0.482240
      58A     -0.478931    59A     -0.470091    60A     -0.457770
      61A     -0.444980    62A     -0.433388    63A     -0.429727
      64A     -0.407374    65A     -0.401430    66A     -0.383262
      67A     -0.344108    68A     -0.336910    69A     -0.335058
      70A     -0.326132    71A     -0.316711    72A     -0.279982
      73A     -0.258314

  @DF-RKS Final Energy:  -895.95694406798475

   => Energetics <=

    Nuclear Repulsion Energy =           1536.4670835757794976
    One-Electron Energy =               -4266.1844995275550900
    Two-Electron Energy =                1921.5219846200761822
    DFT Exchange-Correlation Energy =     -87.7352806335399009
    Empirical Dispersion Energy =          -0.0262321027455791
    VV10 Nonlocal Energy =                  0.0000000000000000
    Total Energy =                       -895.9569440679846366

  Dipole Moment: [D]
     X:     3.6224      Y:    -0.9556      Z:     0.9116     Total:     3.8556

    Molecular point group: c1
  Basis Set: 6-311G
    Blend: 6-311G
  Basis Set: (6-311G AUX)
    Blend: CC-PVTZ-JKFIT

  -Total Gradient:
     Atom            X                  Y                   Z
    ------   -----------------  -----------------  -----------------
       1        0.005921804479    -0.000605981768     0.006327557047
       2       -0.010980785672    -0.002317368600    -0.009359893261
       3        0.003975896339     0.009560303953     0.006997735406
       4       -0.001918361126    -0.001583346541    -0.005368183284
       5        0.000003018840     0.000002580300    -0.000000486507
       6        0.000029595516     0.000010311252    -0.000018577941
       7        0.000120853918     0.000020159526    -0.000032741567
       8       -0.000218661597    -0.000043603843     0.000049648803
       9       -0.000108569544    -0.000111912830     0.000010628213
      10        0.002671343201    -0.002573657946    -0.001440301661
      11        0.000013451414    -0.000352321999     0.000376093113
      12        0.000029927787    -0.000504633366     0.000573968974
      13       -0.000024109755    -0.000013038837    -0.000010618909
      14        0.000017549870    -0.000005817470     0.000005014448
      15       -0.000010516821     0.000016979597     0.000027395524
      16        0.000458017003    -0.001467971477     0.001829370013
      17        0.000011356793    -0.000031286995    -0.000032548499
      18        0.000234927047    -0.001205267171     0.001681958737
      19       -0.000027049214    -0.000034259313    -0.000010283777
      20       -0.000498981857     0.001975509935    -0.003585604195
      21        0.000014558246     0.000007096254    -0.000037116797
      22        0.000045158963     0.000006579106    -0.000001932768
      23       -0.000003716116    -0.000005759318     0.000009460275
      24       -0.000007163548     0.000008293188    -0.000001603531
      25       -0.000012438670    -0.000000588296     0.000009930850
      26        0.000005005097     0.000000003177    -0.000005432957
      27       -0.000016149196     0.000004734910     0.000004987483
      28       -0.000028545349     0.000023364764     0.000005361057
      29        0.000025491103     0.000000105690     0.000009693342
      30       -0.000002974266     0.000013180183    -0.000018573976
      31       -0.000000692458    -0.000004839490    -0.000018317700
      32        0.000938827373    -0.000984328779     0.004715456164
      33        0.000012792765     0.000020776656    -0.000049575354
      34        0.000010064034     0.000005483398     0.000009424557
      35       -0.000646193414     0.000367145266    -0.002788016210
      36       -0.000014872160    -0.000107479986    -0.000094334090

  **** Optimization is complete! (in 11 steps) ****
    Final optimized geometry and variables:
    Molecular point group: c1

    Geometry (in Angstrom), charge = 0, multiplicity = 1:

    C           -0.703543224629     1.483205124260     0.493122677912
    C           -0.794136047092     0.128196736575     0.451293319296
    N            0.158350727589    -0.641018577141     1.166443751474
    C            1.539250058899    -0.783924072314     0.758466691896
    H           -0.226474293451    -1.530487363415     1.453350462835
    C            0.075886325743     2.320918464867     1.400602556153
    N           -1.022381935986     3.683846684255    -0.015731295611
    C           -1.425475315332     2.416735421070    -0.420477976244
    C           -0.153109714730     3.610186482882     1.082091527428
    C           -1.879590597528    -0.640097701440    -0.203991614445
    C           -3.216982720948    -0.343168189319     0.081000065940
    C           -1.589682471559    -1.703012739191    -1.066616427995
    C           -4.242135829655    -1.095098436104    -0.480167964799
    C           -2.616304884462    -2.448522975120    -1.638208606128
    C           -3.944464377259    -2.150078414128    -1.341125954346
    C            2.539680965968     0.071409748279     1.219562909934
    C            1.921781902424    -1.873465045905    -0.029227858816
    C            3.867576057695    -0.116132766884     0.858985580227
    C            3.247651525288    -2.074225289098    -0.391368760344
    C            4.244861878239    -1.183675157066     0.031318035628
    H           -1.333978476316     4.518001235795    -0.473538161584
    O           -2.188559954638     2.194869425264    -1.376062693210
    H           -3.442823942200     0.482200786760     0.741336916245
    H           -0.562544548780    -1.916731712321    -1.323738218323
    H           -5.271393563067    -0.855466842682    -0.251453487689
    H           -2.380345206622    -3.254492522803    -2.319755313932
    H           -4.742573883548    -2.732000614132    -1.781730345134
    H            2.284034299559     0.886471904374     1.875389699263
    H            1.175527305812    -2.584085783080    -0.358061638598
    H            4.626193628755     0.554989076676     1.240783247968
    H            3.512207847392    -2.923966612712    -1.008270669951
    N            5.577851596979    -1.388151930893    -0.297951753311
    H            0.630212638421     1.965510673876     2.247715875826
    H            0.196923981148     4.506170795738     1.563723123271
    H            6.202957581195    -0.605792362641    -0.334105747948
    H            5.823968862355    -2.174316016782    -0.869159561991

*** Psi4 exiting successfully. Buy a developer a beer!
