                               Psi4 1.3.2 release

  ==> Input File <==

--------------------------------------------------------------------------
molecule {
0 1
 C   -0.713283    1.604285    0.124291
 C   -0.796787    0.238720    0.346251
 N    0.181740   -0.383988    1.167604
 C    1.560679   -0.654762    0.856023
 H   -0.241798   -1.140318    1.706243
 C    0.212733    2.541042    0.743892
 N   -1.085061    3.717783   -0.674003
 C   -1.565559    2.424272   -0.812737
 C   -0.044976    3.776307    0.239622
 C   -1.892302   -0.652066   -0.124975
 C   -3.251025   -0.336321    0.127234
 C   -1.585228   -1.881962   -0.760581
 C   -4.270166   -1.212995   -0.265954
 C   -2.606609   -2.756413   -1.151816
 C   -3.955523   -2.427009   -0.909502
 C    2.367100   -1.325134    1.809316
 C    2.153687   -0.295362   -0.381299
 C    3.710685   -1.617145    1.538282
 C    3.498496   -0.589446   -0.645554
 C    4.310294   -1.248167    0.309788
 H   -1.479225    4.487575   -1.195275
 O   -2.499619    2.136128   -1.561480
 H   -3.507949    0.596840    0.630051
 H   -0.542283   -2.147019   -0.941597
 H   -5.309986   -0.950448   -0.066162
 H   -2.350222   -3.697068   -1.641385
 H   -4.751369   -3.107981   -1.216133
 H    1.948315   -1.623058    2.773543
 H    1.572646    0.213361   -1.152448
 H    4.294053   -2.141133    2.298729
 H    3.915354   -0.301400   -1.613174
 N    5.677554   -1.548637    0.035637
 H    0.972351    2.291696    1.471059
 H    0.429612    4.724257    0.451522
 H    6.261002   -1.595583    0.871592
 H    6.108433   -0.910206   -0.633968
}
set optking {
  frozen_dihedral = ("
    16 4 3 2
    1 2 10 11
    1 2 10 12
    3 2 10 11
    1 2 3 4
    10 2 3 4
    18 20 32 35
  ")
}
set {
  geom_maxiter 400
  g_convergence GAU_LOOSE
  dynamic_level 1
}
memory 8.333333333333334GB
set_num_threads(1)
psi4_io.set_default_path("/scratch/bdw2292/Psi4-7_1_Index_0_GrowFragment_0-farH_in17")
for _ in range(1):
  try:
    set opt_coordinates both
    optimize('wb97x-d/6-311G')
    break
  except OptimizationConvergenceError:
    break
  else:
    try:
      set opt_coordinates cartesian
      optimize('wb97x-d/6-311G')
      break
    except OptimizationConvergenceError:
      pass
clean()
--------------------------------------------------------------------------

    Molecular point group: c1
  Charge       = 0
  Multiplicity = 1
  Basis Set: 6-311G
    Blend: 6-311G
  Basis Set: (6-311G AUX)
    Blend: CC-PVTZ-JKFIT
  @DF-RKS Final Energy:  -895.95637664776257
    Total Energy =                       -895.9563766477625677
    Molecular point group: c1
  Basis Set: 6-311G
    Blend: 6-311G
  Basis Set: (6-311G AUX)
    Blend: CC-PVTZ-JKFIT
  Basis Set: 6-311G
    Blend: 6-311G
  Basis Set: (6-311G AUX)
    Blend: CC-PVTZ-JKFIT
  @DF-RKS Final Energy:  -895.96427771406445
    Total Energy =                       -895.9642777140645649
  Basis Set: 6-311G
    Blend: 6-311G
  Basis Set: (6-311G AUX)
    Blend: CC-PVTZ-JKFIT
  Basis Set: 6-311G
    Blend: 6-311G
  @DF-RKS Final Energy:  -895.96572406662540
    Total Energy =                       -895.9657240666255120
  @DF-RKS Final Energy:  -895.96528723031383
    Total Energy =                       -895.9652872303138338
  @DF-RKS Final Energy:  -895.96658142835429
    Total Energy =                       -895.9665814283541749
  Basis Set: (6-311G AUX)
    Blend: CC-PVTZ-JKFIT
  Basis Set: 6-311G
    Blend: 6-311G
  Basis Set: (6-311G AUX)
    Blend: CC-PVTZ-JKFIT
  @DF-RKS Final Energy:  -895.96663727674832
    Total Energy =                       -895.9666372767484290
  Basis Set: 6-311G
    Blend: 6-311G
  Basis Set: (6-311G AUX)
    Blend: CC-PVTZ-JKFIT
  Charge       = 0
  Multiplicity = 1
  Basis Set: 6-311G
    Blend: 6-311G
  Basis Set: (6-311G AUX)
    Blend: CC-PVTZ-JKFIT

    Orbital Energies [Eh]
    ---------------------

    Doubly Occupied:

       1A    -19.207753     2A    -14.465129     3A    -14.456344
       4A    -14.431780     5A    -10.394219     6A    -10.353510
       7A    -10.333059     8A    -10.330709     9A    -10.328415
      10A    -10.305479    11A    -10.298889    12A    -10.294800
      13A    -10.292927    14A    -10.291788    15A    -10.291520
      16A    -10.290988    17A    -10.289484    18A    -10.287710
      19A    -10.287395    20A    -10.286364    21A    -10.279383
      22A     -1.143034    23A     -1.062355    24A     -1.056367
      25A     -1.022915    26A     -0.970466    27A     -0.945138
      28A     -0.905421    29A     -0.870831    30A     -0.854403
      31A     -0.853133    32A     -0.832169    33A     -0.818782
      34A     -0.766403    35A     -0.724876    36A     -0.713963
      37A     -0.704711    38A     -0.699517    39A     -0.682506
      40A     -0.647685    41A     -0.632197    42A     -0.626264
      43A     -0.606344    44A     -0.601989    45A     -0.597049
      46A     -0.563428    47A     -0.558282    48A     -0.542421
      49A     -0.535127    50A     -0.530732    51A     -0.523173
      52A     -0.518393    53A     -0.514226    54A     -0.513337
      55A     -0.510030    56A     -0.495292    57A     -0.483644
      58A     -0.483410    59A     -0.470177    60A     -0.458833
      61A     -0.441082    62A     -0.431158    63A     -0.429362
      64A     -0.425046    65A     -0.407901    66A     -0.385407
      67A     -0.348182    68A     -0.338569    69A     -0.334114
      70A     -0.327960    71A     -0.320248    72A     -0.275900
      73A     -0.250035

  @DF-RKS Final Energy:  -895.96666122741738

   => Energetics <=

    Nuclear Repulsion Energy =           1541.6778768104311439
    One-Electron Energy =               -4276.5529893935618020
    Two-Electron Energy =                1926.6788266116984687
    DFT Exchange-Correlation Energy =     -87.7441744581335001
    Empirical Dispersion Energy =          -0.0262007978518241
    VV10 Nonlocal Energy =                  0.0000000000000000
    Total Energy =                       -895.9666612274173758

  Dipole Moment: [D]
     X:     3.6558      Y:     0.0088      Z:     1.6709     Total:     4.0195

    Molecular point group: c1
  Basis Set: 6-311G
    Blend: 6-311G
  Basis Set: (6-311G AUX)
    Blend: CC-PVTZ-JKFIT

  -Total Gradient:
     Atom            X                  Y                   Z
    ------   -----------------  -----------------  -----------------
       1       -0.002738776985     0.001590782741     0.005376706394
       2        0.003207824001    -0.005912829105    -0.008995766045
       3        0.000133411992     0.011615425629     0.007930161019
       4       -0.001654292835    -0.006880604947    -0.003104384021
       5       -0.000052810969    -0.000030906460    -0.000013517182
       6        0.000464078485    -0.000015630638    -0.000629612708
       7       -0.000220287663    -0.000416834390    -0.000486797193
       8       -0.000287427306     0.000442493622    -0.000186070445
       9       -0.000464815648    -0.000290598476     0.000408852999
      10        0.000578640910     0.001155853268    -0.003015637981
      11       -0.000025081722    -0.001260326645     0.002049720835
      12        0.000039880186     0.000036947086    -0.000237839392
      13        0.000108757604     0.000094734412     0.000096964291
      14        0.000129775415     0.000021291584     0.000008190360
      15       -0.000023497003    -0.000006415395    -0.000028099405
      16        0.000123183110     0.000289418479     0.000075562885
      17       -0.000134967249     0.000175343966     0.000171637670
      18       -0.000513432024    -0.001247279975    -0.000703482926
      19        0.000033103823    -0.000104488636     0.000063345861
      20        0.000672115079     0.002859661320     0.001151217097
      21        0.000235162229    -0.000550059537     0.000280812815
      22        0.000687179426     0.000231751128     0.000418744919
      23       -0.000014363826    -0.000027616665    -0.000062616628
      24       -0.000006611223    -0.000018481750    -0.000028350862
      25        0.000026564788     0.000018769434    -0.000024251294
      26        0.000028590627     0.000028263521     0.000015252959
      27        0.000034801344     0.000057132875     0.000017039501
      28        0.000012647494     0.000005132395    -0.000030165628
      29        0.000131223053    -0.000091905026    -0.000008148302
      30       -0.000020989857     0.000011745462     0.000000560567
      31       -0.000051940864    -0.000050586307     0.000029964235
      32       -0.000773701682    -0.003727331401    -0.000442987179
      33       -0.000011443355    -0.000026141296    -0.000109301075
      34       -0.000130795866    -0.000148010686    -0.000040480773
      35        0.000412150564     0.002129561139     0.000063552501
      36        0.000052209797     0.000121826481    -0.000030622968

  **** Optimization is complete! (in 7 steps) ****
    Final optimized geometry and variables:
    Molecular point group: c1

    Geometry (in Angstrom), charge = 0, multiplicity = 1:

    C           -0.716988683860     1.555564267091     0.185589500318
    C           -0.816749415914     0.219750868433     0.399139317876
    N            0.105086080667    -0.405197079913     1.263480228920
    C            1.471854720896    -0.637240976063     0.928370367871
    H           -0.303048286090    -1.173830975279     1.774413751044
    C            0.255673679249     2.459534587219     0.795899772113
    N           -0.929512871799     3.635090227458    -0.717700360917
    C           -1.483404463801     2.365321033475    -0.806128028502
    C            0.092187597529     3.676766710663     0.244393439007
    C           -1.884352307443    -0.663638817803    -0.124249396066
    C           -3.238023292283    -0.360849795245     0.046028308361
    C           -1.522322734813    -1.875255305811    -0.728790492759
    C           -4.214182285317    -1.245690649062    -0.397972559957
    C           -2.500702105282    -2.752302970090    -1.185593738499
    C           -3.848769642918    -2.439380391510    -1.018048665225
    C            2.287146152785    -1.300414254575     1.850416917974
    C            2.033104436088    -0.220054156909    -0.279313367903
    C            3.618329472702    -1.568735978995     1.562055456150
    C            3.375236158833    -0.459928658674    -0.554374729891
    C            4.193557470774    -1.137360094669     0.357929319061
    H           -1.251299081671     4.400587507824    -1.275832439035
    O           -2.403131117830     2.054233965537    -1.580321784020
    H           -3.517795362380     0.572577840093     0.511677150970
    H           -0.474056877225    -2.117944580848    -0.850259787330
    H           -5.259142432210    -1.002054459132    -0.265116199871
    H           -2.213040966701    -3.676098734149    -1.668609777157
    H           -4.610761413751    -3.122725205696    -1.367561753374
    H            1.871454880164    -1.617000721526     2.798999010373
    H            1.428081989485     0.302286870658    -1.006441969001
    H            4.221267720530    -2.114575579969     2.276627278117
    H            3.790025559525    -0.117630184361    -1.494291635105
    N            5.525369555690    -1.421857956365     0.062323929824
    H            0.956705575830     2.184320136572     1.562099019122
    H            0.608765233969     4.597388027451     0.450164890287
    H            6.181980719180    -1.531631422220     0.811496965368
    H            5.904566810555    -1.108806617526    -0.811109015860

*** Psi4 exiting successfully. Buy a developer a beer!
