                               Psi4 1.3.2 release

  ==> Input File <==

--------------------------------------------------------------------------
molecule {
0 1
 C   -0.684396    1.515223    0.326859
 C   -0.788887    0.132261    0.378725
 N    0.160443   -0.593976    1.149374
 C    1.545618   -0.829287    0.848489
 H   -0.269258   -1.405451    1.594610
 C    0.271218    2.362104    1.027568
 N   -1.029740    3.717976   -0.216377
 C   -1.535469    2.456766   -0.493101
 C    0.027368    3.651917    0.675826
 C   -1.889159   -0.673062   -0.232855
 C   -3.240178   -0.330493    0.039788
 C   -1.636218   -1.822093   -1.023724
 C   -4.293522   -1.096149   -0.474606
 C   -2.691527   -2.585229   -1.539158
 C   -4.026670   -2.227741   -1.269145
 C    2.519710   -0.402706    1.783706
 C    1.991700   -1.442261   -0.345163
 C    3.886417   -0.583606    1.533103
 C    3.359530   -1.626057   -0.590087
 C    4.338341   -1.192904    0.337203
 H   -1.417943    4.549830   -0.637365
 O   -2.485788    2.276986   -1.256488
 H   -3.465692    0.540564    0.656161
 H   -0.612896   -2.123158   -1.234475
 H   -5.322827   -0.811828   -0.251590
 H   -2.471341   -3.463063   -2.148553
 H   -4.847953   -2.823902   -1.670069
 H    2.208664    0.069703    2.718225
 H    1.278984   -1.774533   -1.097422
 H    4.605187   -0.246252    2.283334
 H    3.662743   -2.112329   -1.519958
 N    5.729356   -1.380661    0.084014
 H    1.041673    2.022763    1.703616
 H    0.524560    4.560902    0.985166
 H    6.322219   -0.683737    0.536106
 H    5.961497   -1.417867   -0.909100
}
set optking {
  frozen_dihedral = ("
    16 4 3 2
    1 2 10 11
    1 2 10 12
    3 2 10 11
    1 2 3 4
    10 2 3 4
    18 20 32 35
  ")
}
set {
  geom_maxiter 400
  g_convergence GAU_LOOSE
  dynamic_level 1
}
memory 8.333333333333334GB
set_num_threads(1)
psi4_io.set_default_path("/scratch/bdw2292/Psi4-7_1_Index_0_GrowFragment_0-farH_in17")
for _ in range(1):
  try:
    set opt_coordinates both
    optimize('wb97x-d/6-311G')
    break
  except OptimizationConvergenceError:
    break
  else:
    try:
      set opt_coordinates cartesian
      optimize('wb97x-d/6-311G')
      break
    except OptimizationConvergenceError:
      pass
clean()
--------------------------------------------------------------------------

    Molecular point group: c1
  Charge       = 0
  Multiplicity = 1
  Basis Set: 6-311G
    Blend: 6-311G
  Basis Set: (6-311G AUX)
    Blend: CC-PVTZ-JKFIT
  @DF-RKS Final Energy:  -895.94848516685215
    Total Energy =                       -895.9484851668520378
    Molecular point group: c1
  Basis Set: 6-311G
    Blend: 6-311G
  Basis Set: (6-311G AUX)
    Blend: CC-PVTZ-JKFIT
  Basis Set: 6-311G
    Blend: 6-311G
  Basis Set: (6-311G AUX)
    Blend: CC-PVTZ-JKFIT
  @DF-RKS Final Energy:  -895.95175713432923
    Total Energy =                       -895.9517571343292275
  Basis Set: 6-311G
    Blend: 6-311G
  Basis Set: (6-311G AUX)
    Blend: CC-PVTZ-JKFIT
  Basis Set: 6-311G
    Blend: 6-311G
  @DF-RKS Final Energy:  -895.95758554286510
    Total Energy =                       -895.9575855428649902
  @DF-RKS Final Energy:  -895.95839465428458
    Total Energy =                       -895.9583946542846888
  @DF-RKS Final Energy:  -895.95831118795422
    Total Energy =                       -895.9583111879542230
  @DF-RKS Final Energy:  -895.95839465400741
    Total Energy =                       -895.9583946540074066
  @DF-RKS Final Energy:  -895.95847672819934
    Total Energy =                       -895.9584767281993436
  @DF-RKS Final Energy:  -895.95860732657377
    Total Energy =                       -895.9586073265737696
  Basis Set: (6-311G AUX)
    Blend: CC-PVTZ-JKFIT
  Basis Set: 6-311G
    Blend: 6-311G
  Basis Set: (6-311G AUX)
    Blend: CC-PVTZ-JKFIT
  @DF-RKS Final Energy:  -895.95871597379255
    Total Energy =                       -895.9587159737924367
  Basis Set: 6-311G
    Blend: 6-311G
  Basis Set: (6-311G AUX)
    Blend: CC-PVTZ-JKFIT
  Charge       = 0
  Multiplicity = 1
  Basis Set: 6-311G
    Blend: 6-311G
  Basis Set: (6-311G AUX)
    Blend: CC-PVTZ-JKFIT

    Orbital Energies [Eh]
    ---------------------

    Doubly Occupied:

       1A    -19.201135     2A    -14.459989     3A    -14.446103
       4A    -14.440748     5A    -10.388053     6A    -10.349908
       7A    -10.343932     8A    -10.325005     9A    -10.322846
      10A    -10.305205    11A    -10.296946    12A    -10.295548
      13A    -10.293267    14A    -10.292656    15A    -10.292113
      16A    -10.291345    17A    -10.291076    18A    -10.289999
      19A    -10.289718    20A    -10.288196    21A    -10.275264
      22A     -1.136323    23A     -1.054075    24A     -1.046563
      25A     -1.031972    26A     -0.969398    27A     -0.947893
      28A     -0.899913    29A     -0.868039    30A     -0.858527
      31A     -0.852739    32A     -0.832644    33A     -0.815698
      34A     -0.760824    35A     -0.725692    36A     -0.710794
      37A     -0.706569    38A     -0.700683    39A     -0.678684
      40A     -0.644245    41A     -0.632243    42A     -0.622267
      43A     -0.618267    44A     -0.598079    45A     -0.596718
      46A     -0.564324    47A     -0.555786    48A     -0.541216
      49A     -0.537923    50A     -0.531060    51A     -0.527628
      52A     -0.520467    53A     -0.516346    54A     -0.510932
      55A     -0.508001    56A     -0.491338    57A     -0.482066
      58A     -0.480473    59A     -0.468963    60A     -0.456703
      61A     -0.444670    62A     -0.432571    63A     -0.426990
      64A     -0.403280    65A     -0.399271    66A     -0.386931
      67A     -0.342548    68A     -0.337151    69A     -0.334751
      70A     -0.323055    71A     -0.316149    72A     -0.281389
      73A     -0.259769

  @DF-RKS Final Energy:  -895.95871796529752

   => Energetics <=

    Nuclear Repulsion Energy =           1539.9418681409765668
    One-Electron Energy =               -4273.2328836232445610
    Two-Electron Energy =                1925.0964577417873898
    DFT Exchange-Correlation Energy =     -87.7378467306489966
    Empirical Dispersion Energy =          -0.0263134941679463
    VV10 Nonlocal Energy =                  0.0000000000000000
    Total Energy =                       -895.9587179652976374

  Dipole Moment: [D]
     X:     4.2894      Y:    -0.3999      Z:     0.4465     Total:     4.3311

    Molecular point group: c1
  Basis Set: 6-311G
    Blend: 6-311G
  Basis Set: (6-311G AUX)
    Blend: CC-PVTZ-JKFIT

  -Total Gradient:
     Atom            X                  Y                   Z
    ------   -----------------  -----------------  -----------------
       1        0.000905225628    -0.000947918568     0.006569153402
       2       -0.006099848837    -0.001297104609    -0.005128620720
       3        0.004049612599     0.016183557707     0.012065278545
       4       -0.002948680900    -0.017157454272    -0.006125876934
       5        0.000002902247     0.000082948632    -0.000020329372
       6       -0.000331896623     0.000016624395     0.000482809686
       7       -0.000077430488    -0.000070593242     0.000362900493
       8       -0.000331990289    -0.000041162539     0.000151287666
       9        0.000564166223     0.000040147933    -0.000564316328
      10        0.004699184210    -0.001360439049    -0.006664835198
      11        0.000162007323    -0.001695862761     0.001442364701
      12       -0.000165190778     0.001372228977    -0.001268795350
      13        0.000066709361     0.000007253346    -0.000025538056
      14       -0.000013111473     0.000058857279     0.000048907595
      15        0.000042374039     0.000029786389     0.000037304947
      16       -0.000419937412     0.004962795706    -0.001476826667
      17        0.000038413672     0.000142605248     0.000100558423
      18        0.000111404242    -0.002029742093     0.000399038518
      19        0.000088678948     0.000120659958     0.000035941753
      20       -0.000305549696     0.003679008963    -0.001376506871
      21        0.000027389807    -0.000149265134     0.000083866834
      22        0.000117116683    -0.000020313418    -0.000129973885
      23        0.000020962040    -0.000024481443    -0.000043771731
      24       -0.000009734312     0.000002248680     0.000007171596
      25        0.000040079804     0.000005237142    -0.000000163380
      26       -0.000006790752     0.000029360369     0.000035243617
      27        0.000039062057     0.000032938127     0.000029000083
      28        0.000029140214    -0.000018745364    -0.000039963130
      29        0.000031340255    -0.000039482009     0.000021051844
      30       -0.000021417469    -0.000007050815    -0.000020410571
      31       -0.000017897973    -0.000011114712     0.000036406963
      32        0.000748661047    -0.004237787692     0.002591634242
      33       -0.000103838301     0.000059649255     0.000039942483
      34        0.000020836787    -0.000028204638    -0.000036787982
      35       -0.000693366351     0.002282864035    -0.001942374379
      36       -0.000074835726     0.000109752217     0.000312418012

  **** Optimization is complete! (in 5 steps) ****
    Final optimized geometry and variables:
    Molecular point group: c1

    Geometry (in Angstrom), charge = 0, multiplicity = 1:

    C           -0.682392344326     1.307628737149     0.711131666782
    C           -0.759054867976    -0.035145793170     0.523589270591
    N            0.263472117172    -0.845030248203     1.072728974035
    C            1.604253419034    -0.887452956227     0.528572428754
    H           -0.076105745839    -1.765800000824     1.317168507895
    C            0.294445286399     2.030308092256     1.523199190398
    N           -1.014044906996     3.553383754252     0.503452956650
    C           -1.530013032422     2.345106974139     0.052288790552
    C            0.063797202011     3.349195038829     1.379014077859
    C           -1.890376050059    -0.741945516215    -0.131757924938
    C           -3.198906944766    -0.492406465231     0.302336416562
    C           -1.687968365616    -1.707455106030    -1.123374391119
    C           -4.275213404816    -1.170982825121    -0.254738448565
    C           -2.766405852111    -2.381021427795    -1.690057973678
    C           -4.062732092312    -2.114682653747    -1.257859653152
    C            2.672052058942    -0.562703473193     1.368689043489
    C            1.881154071307    -1.147518884092    -0.813130654423
    C            3.981318074821    -0.565757974345     0.909941471179
    C            3.185781797795    -1.127784146864    -1.291656270113
    C            4.260183241728    -0.840133982120    -0.438096078351
    H           -1.386674719136     4.436405885197     0.214572067770
    O           -2.477214915051     2.243925598700    -0.746318388805
    H           -3.363638782972     0.248957482585     1.070538498793
    H           -0.689418449661    -1.942022659352    -1.457169106517
    H           -5.278221858441    -0.960580658451     0.089558503982
    H           -2.592310325166    -3.113497322084    -2.466396647513
    H           -4.899878908786    -2.640398755819    -1.696496471055
    H            2.460443986008    -0.335870404625     2.404582500958
    H            1.079473603386    -1.341616960725    -1.508707454554
    H            4.794536012658    -0.348745390900     1.590544677996
    H            3.372772334120    -1.324619489684    -2.339832442972
    N            5.568593287136    -0.867809387485    -0.899531774108
    H            1.039267155877     1.575041590961     2.147024478469
    H            0.558919933022     4.185981340235     1.839320296496
    H            6.263356434016    -0.304116790066    -0.447908400083
    H            5.739211163294    -1.083870299922    -1.863116888218

*** Psi4 exiting successfully. Buy a developer a beer!
