                               Psi4 1.3.2 release

  ==> Input File <==

--------------------------------------------------------------------------
molecule {
0 1
O 0.602566503934 -0.084445814794 0.032240520764
C -0.604076132635 0.084665605101 -0.032285186578
H -1.054893679580 1.091082138189 -0.080714984116
H -1.315642986030 -0.758964631981 -0.046551291147
}
memory 8.333333333333334GB
set_num_threads(1)
psi4_io.set_default_path("/scratch/bdw2292/Psi4-39_Index_0-farH_in17")
set freeze_core True
set PROPERTIES_ORIGIN ["COM"]
set cubeprop_tasks ['esp']
E, wfn = properties('mp2/6-311G**',properties=['dipole'],return_wfn=True)
cubeprop(wfn)
fchk(wfn, "39_Index_0-dma.fchk")
clean()
--------------------------------------------------------------------------

    Molecular point group: c1
  Charge       = 0
  Multiplicity = 1
  Basis Set: 6-311G**
    Blend: 6-311G**
  Basis Set: (6-311G** AUX)
    Blend: CC-PVTZ-JKFIT

    Orbital Energies [Eh]
    ---------------------

    Doubly Occupied:

       1A    -20.571029     2A    -11.342798     3A     -1.394492
       4A     -0.870039     5A     -0.687670     6A     -0.645571
       7A     -0.526226     8A     -0.441166

  @DF-RHF Final Energy:  -113.89587571265594

   => Energetics <=

    Nuclear Repulsion Energy =             31.0144555673768743
    One-Electron Energy =                -216.8626818922156190
    Two-Electron Energy =                  71.9523506121828120
    Total Energy =                       -113.8958757126559362
  Basis Set: (6-311G** AUX)
    Blend: CC-PVTZ-RI
    Molecular point group: c1

    Geometry (in Angstrom), charge = 0, multiplicity = 1:

       Center              X                  Y                   Z               Mass
    ------------   -----------------  -----------------  -----------------  -----------------
         O            0.602566503934    -0.084445814794     0.032240520764    15.994914619570
         C           -0.604076132635     0.084665605101    -0.032285186578    12.000000000000
         H           -1.054893679580     1.091082138189    -0.080714984116     1.007825032230
         H           -1.315642986030    -0.758964631981    -0.046551291147     1.007825032230

  Basis Set: 6-311G**
    Blend: 6-311G**
  Basis Set: (6-311G** AUX)
    Blend: CC-PVTZ-JKFIT
	 Reference Energy          =    -113.8958757126559362 [Eh]
	 Singles Energy            =      -0.0000000000000000 [Eh]
	 Same-Spin Energy          =      -0.0841090509964730 [Eh]
	 Opposite-Spin Energy      =      -0.2549799885184836 [Eh]
	 Correlation Energy        =      -0.3390890395149567 [Eh]
	 Total Energy              =    -114.2349647521708960 [Eh]

	 ================> DF-SCS-MP2 Energies <==================
	-----------------------------------------------------------
	 SCS Same-Spin Scale       =       0.3333333333333333 [-]
	 SCS Opposite-Spin Scale   =       1.2000000000000000 [-]
	 SCS Same-Spin Energy      =      -0.0280363503321577 [Eh]
	 SCS Opposite-Spin Energy  =      -0.3059759862221804 [Eh]
	 SCS Correlation Energy    =      -0.3340123365543380 [Eh]
	 SCS Total Energy          =    -114.2298880492102739 [Eh]
	-----------------------------------------------------------

  Dipole Moment: [D]
     X:    -2.1809      Y:     0.3056      Z:    -0.1168     Total:     2.2053

  Basis Set: 6-311G**
    Blend: 6-311G**
*** Psi4 exiting successfully. Buy a developer a beer!
