                               Psi4 1.3.2 release

  ==> Input File <==

--------------------------------------------------------------------------
molecule {
0 1
 O    1.178200   -0.131000    0.062300
 C   -0.025500   -0.025300   -0.000600
 H   -0.422900    0.996200   -0.046600
 H   -0.729800   -0.840000   -0.015100
}
set {
  geom_maxiter 400
  g_convergence GAU
  dynamic_level 1
}
memory 8.333333333333334GB
set_num_threads(1)
psi4_io.set_default_path("/scratch/bdw2292/Psi4-39_Index_0-farH_in17")
for _ in range(1):
  try:
    set opt_coordinates both
    optimize('mp2/6-31G*')
    break
  except OptimizationConvergenceError:
    break
  else:
    try:
      set opt_coordinates cartesian
      optimize('mp2/6-31G*')
      break
    except OptimizationConvergenceError:
      pass
clean()
--------------------------------------------------------------------------

    Molecular point group: c1
  Charge       = 0
  Multiplicity = 1
  Basis Set: 6-31G*
    Blend: 6-31G*
  Basis Set: (6-31G* AUX)
    Blend: CC-PVDZ-JKFIT
  @DF-RHF Final Energy:  -113.86334267146601
    Total Energy =                       -113.8633426714660146
  Basis Set: (6-31G* AUX)
    Blend: CC-PVDZ-RI
    Molecular point group: c1
  Basis Set: 6-31G*
    Blend: 6-31G*
  Basis Set: (6-31G* AUX)
    Blend: CC-PVDZ-JKFIT
  Basis Set: (6-31G* AUX)
    Blend: CC-PVDZ-JKFIT
	 Reference Energy          =    -113.8633426714660146 [Eh]
	 Singles Energy            =      -0.0000000000000000 [Eh]
	 Same-Spin Energy          =      -0.0787522924028043 [Eh]
	 Opposite-Spin Energy      =      -0.2303894726318913 [Eh]
	 Correlation Energy        =      -0.3091417650346956 [Eh]
	 Total Energy              =    -114.1724844365007101 [Eh]
	 SCS Total Energy          =    -114.1660608027585511 [Eh]
  @DF-RHF Final Energy:  -113.86334267148844
    Total Energy =                       -113.8633426714884394
  @DF-RHF Final Energy:  -113.86334267148833
    Total Energy =                       -113.8633426714883257
  @DF-RHF Final Energy:  -113.86359296364751
    Total Energy =                       -113.8635929636475055
  @DF-RHF Final Energy:  -113.86337755133653
    Total Energy =                       -113.8633775513365265
  @DF-RHF Final Energy:  -113.86346261998827
    Total Energy =                       -113.8634626199882689
  Charge       = 0
  Multiplicity = 1
  Basis Set: 6-31G*
    Blend: 6-31G*
  Basis Set: (6-31G* AUX)
    Blend: CC-PVDZ-JKFIT

    Orbital Energies [Eh]
    ---------------------

    Doubly Occupied:

       1A    -20.585893     2A    -11.345888     3A     -1.394051
       4A     -0.870609     5A     -0.686915     6A     -0.643345
       7A     -0.525350     8A     -0.439465

  @DF-RHF Final Energy:  -113.86351692101363

   => Energetics <=

    Nuclear Repulsion Energy =             31.0144555673815674
    One-Electron Energy =                -216.7729110350801420
    Two-Electron Energy =                  71.8949385466849549
    Total Energy =                       -113.8635169210136269

  Dipole Moment: [D]
     X:    -2.8054      Y:     0.3931      Z:    -0.1502     Total:     2.8368

  Basis Set: (6-31G* AUX)
    Blend: CC-PVDZ-RI
    Molecular point group: c1
  Basis Set: 6-31G*
    Blend: 6-31G*
  Basis Set: (6-31G* AUX)
    Blend: CC-PVDZ-JKFIT
  Basis Set: (6-31G* AUX)
    Blend: CC-PVDZ-JKFIT
	 Reference Energy          =    -113.8635169210136269 [Eh]
	 Singles Energy            =      -0.0000000000000000 [Eh]
	 Same-Spin Energy          =      -0.0792443789649933 [Eh]
	 Opposite-Spin Energy      =      -0.2319289023532566 [Eh]
	 Correlation Energy        =      -0.3111732813182500 [Eh]
	 Total Energy              =    -114.1746902023318739 [Eh]

	 ================> DF-SCS-MP2 Energies <==================
	-----------------------------------------------------------
	 SCS Same-Spin Scale       =       0.3333333333333333 [-]
	 SCS Opposite-Spin Scale   =       1.2000000000000000 [-]
	 SCS Same-Spin Energy      =      -0.0264147929883311 [Eh]
	 SCS Opposite-Spin Energy  =      -0.2783146828239079 [Eh]
	 SCS Correlation Energy    =      -0.3047294758122390 [Eh]
	 SCS Total Energy          =    -114.1682463968258645 [Eh]
	-----------------------------------------------------------

  -Total Gradient:
     Atom            X                  Y                   Z
    ------   -----------------  -----------------  -----------------
       1       -0.000018437297    -0.000027040117    -0.000019961190
       2       -0.000081829619     0.000005551972     0.000056425084
       3        0.000026173675     0.000057029061    -0.000020614257
       4        0.000074093240    -0.000035540916    -0.000015849637

  **** Optimization is complete! (in 5 steps) ****
    Final optimized geometry and variables:
    Molecular point group: c1

    Geometry (in Angstrom), charge = 0, multiplicity = 1:

    O            0.602566503934    -0.084445814794     0.032240520764
    C           -0.604076132635     0.084665605101    -0.032285186578
    H           -1.054893679580     1.091082138189    -0.080714984116
    H           -1.315642986030    -0.758964631981    -0.046551291147

*** Psi4 exiting successfully. Buy a developer a beer!
