                               Psi4 1.3.2 release

  ==> Input File <==

--------------------------------------------------------------------------
molecule {
0 1
O 0.602566503934 -0.084445814794 0.032240520764
C -0.604076132635 0.084665605101 -0.032285186578
H -1.054893679580 1.091082138189 -0.080714984116
H -1.315642986030 -0.758964631981 -0.046551291147
}
memory 8.333333333333334GB
set_num_threads(1)
psi4_io.set_default_path("/scratch/bdw2292/Psi4-39_Index_0-farH_in17")
set maxiter 500
set freeze_core True
set PROPERTIES_ORIGIN ["COM"]
set cubeprop_tasks ['esp']
E, wfn = properties('mp2/aug-cc-pVTZ',properties=['dipole'],return_wfn=True)
cubeprop(wfn)
fchk(wfn, "39_Index_0-esp.fchk")
oeprop(wfn,"GRID_ESP","WIBERG_LOWDIN_INDICES","MULLIKEN_CHARGES")
clean()
--------------------------------------------------------------------------

    Molecular point group: c1
  Charge       = 0
  Multiplicity = 1
  Basis Set: AUG-CC-PVTZ
    Blend: AUG-CC-PVTZ
  Basis Set: (AUG-CC-PVTZ AUX)
    Blend: AUG-CC-PVTZ-JKFIT

    Orbital Energies [Eh]
    ---------------------

    Doubly Occupied:

       1A    -20.580442     2A    -11.346257     3A     -1.397938
       4A     -0.873899     5A     -0.691090     6A     -0.649527
       7A     -0.531722     8A     -0.445553

  @DF-RHF Final Energy:  -113.91197354932038

   => Energetics <=

    Nuclear Repulsion Energy =             31.0144555673768743
    One-Electron Energy =                -216.8200006213265283
    Two-Electron Energy =                  71.8935715046292785
    Total Energy =                       -113.9119735493203791
  Basis Set: (AUG-CC-PVTZ AUX)
    Blend: AUG-CC-PVTZ-RI
    Molecular point group: c1

    Geometry (in Angstrom), charge = 0, multiplicity = 1:

       Center              X                  Y                   Z               Mass
    ------------   -----------------  -----------------  -----------------  -----------------
         O            0.602566503934    -0.084445814794     0.032240520764    15.994914619570
         C           -0.604076132635     0.084665605101    -0.032285186578    12.000000000000
         H           -1.054893679580     1.091082138189    -0.080714984116     1.007825032230
         H           -1.315642986030    -0.758964631981    -0.046551291147     1.007825032230

  Basis Set: AUG-CC-PVTZ
    Blend: AUG-CC-PVTZ
  Basis Set: (AUG-CC-PVTZ AUX)
    Blend: AUG-CC-PVTZ-JKFIT
	 Reference Energy          =    -113.9119735493203791 [Eh]
	 Singles Energy            =      -0.0000000000000000 [Eh]
	 Same-Spin Energy          =      -0.0965701026857769 [Eh]
	 Opposite-Spin Energy      =      -0.3076170830541574 [Eh]
	 Correlation Energy        =      -0.4041871857399342 [Eh]
	 Total Energy              =    -114.3161607350603077 [Eh]

	 ================> DF-SCS-MP2 Energies <==================
	-----------------------------------------------------------
	 SCS Same-Spin Scale       =       0.3333333333333333 [-]
	 SCS Opposite-Spin Scale   =       1.2000000000000000 [-]
	 SCS Same-Spin Energy      =      -0.0321900342285923 [Eh]
	 SCS Opposite-Spin Energy  =      -0.3691404996649888 [Eh]
	 SCS Correlation Energy    =      -0.4013305338935811 [Eh]
	 SCS Total Energy          =    -114.3133040832139642 [Eh]
	-----------------------------------------------------------

  Dipole Moment: [D]
     X:    -2.3942      Y:     0.3355      Z:    -0.1283     Total:     2.4210

  Basis Set: AUG-CC-PVTZ
    Blend: AUG-CC-PVTZ

  Mulliken Charges: (a.u.)
   Center  Symbol    Alpha    Beta     Spin     Total
       1     O     4.19758  4.19758  0.00000 -0.39516
       2     C     3.25168  3.25168  0.00000 -0.50336
       3     H     0.27538  0.27538  0.00000  0.44924
       4     H     0.27536  0.27536  0.00000  0.44929

   Total alpha =  8.00000, Total beta =  8.00000, Total charge = -0.00000

*** Psi4 exiting successfully. Buy a developer a beer!
