                               Psi4 1.3.2 release

  ==> Input File <==

--------------------------------------------------------------------------
molecule {
0 1
O          8.34630       -0.25270       -1.54960
C          8.61540       -0.66340       -0.41090
H          8.15490       -1.51190       -0.04620
H          9.29980       -0.15670        0.17200
}
memory 100GB
set_num_threads(12)
psi4_io.set_default_path("/scratch/bdw2292/Psi4-farH_in17")
set maxiter 500
set freeze_core True
set PROPERTIES_ORIGIN ["COM"]
set cubeprop_tasks ['esp']
E, wfn = properties('hf/MINIX',properties=['dipole'],return_wfn=True)
cubeprop(wfn)
fchk(wfn, "farH_in17-esp_frag.fchk")
oeprop(wfn,"WIBERG_LOWDIN_INDICES","MULLIKEN_CHARGES")
clean()
--------------------------------------------------------------------------

    Molecular point group: c1

    Geometry (in Angstrom), charge = 0, multiplicity = 1:

       Center              X                  Y                   Z               Mass
    ------------   -----------------  -----------------  -----------------  -----------------
         O           -0.133195209725     0.203285147805    -0.563622707771    15.994914619570
         C            0.135904790275    -0.207414852195     0.575077292229    12.000000000000
         H           -0.324595209725    -1.055914852195     0.939777292229     1.007825032230
         H            0.820304790275     0.299285147805     1.157977292229     1.007825032230

  Charge       = 0
  Multiplicity = 1
  Basis Set: MINIX
    Blend: MINIX
  Basis Set: (MINIX AUX)
    Blend: DEF2-SVP-JKFIT

    Orbital Energies [Eh]
    ---------------------

    Doubly Occupied:

       1A    -20.391589     2A    -11.294270     3A     -1.396074
       4A     -0.892293     5A     -0.713824     6A     -0.607325
       7A     -0.514534     8A     -0.444415

  @DF-RHF Final Energy:  -113.06039989351521

   => Energetics <=

    Nuclear Repulsion Energy =             31.2299445319498084
    One-Electron Energy =                -216.0720415924173210
    Two-Electron Energy =                  71.7816971669523127
    Total Energy =                       -113.0603998935152106

  Dipole Moment: [D]
     X:     0.4843      Y:    -0.7392      Z:     2.0494     Total:     2.2318

  Basis Set: MINIX
    Blend: MINIX

  Mulliken Charges: (a.u.)
   Center  Symbol    Alpha    Beta     Spin     Total
       1     O     4.15808  4.15808  0.00000 -0.31615
       2     C     2.98812  2.98812  0.00000  0.02376
       3     H     0.42690  0.42690  0.00000  0.14620
       4     H     0.42690  0.42690  0.00000  0.14620

   Total alpha =  8.00000, Total beta =  8.00000, Total charge =  0.00000

*** Psi4 exiting successfully. Buy a developer a beer!
