                               Psi4 1.5 release

  ==> Input File <==

--------------------------------------------------------------------------
molecule {
0 1
 C   -0.501261   -0.083674    0.347152
 N    0.741724   -0.613085    0.534664
 C    2.005180   -0.344196   -0.047248
 C    2.238372    0.103911   -1.351303
 H    0.799912   -1.136971    1.414541
 C    3.107884   -0.617439    0.779495
 C   -1.470217   -0.351623    1.294126
 N   -2.385260   -1.118630    3.214519
 C   -2.892370   -0.037881    1.305506
 C   -1.187874   -1.064391    2.537459
 C   -3.406042   -0.505594    2.465096
 C   -0.899241    0.583699   -0.920843
 C   -1.490007    1.849322   -0.897943
 C   -0.870011   -0.134737   -2.122683
 C   -1.986039    2.416186   -2.070117
 C   -1.374530    0.427880   -3.289861
 C   -1.926022    1.708976   -3.267896
 C    3.545903    0.287593   -1.799507
 C    4.405118   -0.442067    0.318987
 C    4.634636    0.015330   -0.978001
 H    1.426495    0.325843   -2.019876
 H    2.932824   -0.959501    1.791705
 H   -2.488501   -1.567148    4.103914
 O   -0.093971   -1.561477    2.936700
 H   -1.547403    2.389863    0.036994
 H   -0.462212   -1.136840   -2.132253
 H   -2.424572    3.404288   -2.044355
 H   -1.348307   -0.135743   -4.212450
 H   -2.316084    2.146358   -4.176760
 H    3.705075    0.640847   -2.809512
 H    5.236042   -0.657370    0.976957
 H   -3.437768    0.463372    0.526052
 H   -4.413427   -0.470457    2.838545
 H    5.643582    0.155864   -1.339755
}
memory 8.166666666666666GB
set_num_threads(2)
psi4_io.set_default_path("/scratch/bdw2292/Psi4-1_16_Index_0-farH_in17")
set freeze_core True
E, wfn = energy('wb97x-d/6-311+G*',return_wfn=True)
oeprop(wfn,"WIBERG_LOWDIN_INDICES")
clean()
--------------------------------------------------------------------------

    Molecular point group: c1

    Geometry (in Angstrom), charge = 0, multiplicity = 1:

       Center              X                  Y                   Z               Mass
    ------------   -----------------  -----------------  -----------------  -----------------
         C           -0.501261024576    -0.083674052786     0.347152035818    12.000000000000
         N            0.741723975424    -0.613085052786     0.534664035818    14.003074004430
         C            2.005179975424    -0.344196052786    -0.047247964182    12.000000000000
         C            2.238371975424     0.103910947214    -1.351302964182    12.000000000000
         H            0.799911975424    -1.136971052786     1.414541035818     1.007825032230
         C            3.107883975424    -0.617439052786     0.779495035818    12.000000000000
         C           -1.470217024576    -0.351623052786     1.294126035818    12.000000000000
         N           -2.385260024576    -1.118630052786     3.214519035818    14.003074004430
         C           -2.892370024576    -0.037881052786     1.305506035818    12.000000000000
         C           -1.187874024576    -1.064391052786     2.537459035818    12.000000000000
         C           -3.406042024576    -0.505594052786     2.465096035818    12.000000000000
         C           -0.899241024576     0.583698947214    -0.920842964182    12.000000000000
         C           -1.490007024576     1.849321947214    -0.897942964182    12.000000000000
         C           -0.870011024576    -0.134737052786    -2.122682964182    12.000000000000
         C           -1.986039024576     2.416185947214    -2.070116964182    12.000000000000
         C           -1.374530024576     0.427879947214    -3.289860964182    12.000000000000
         C           -1.926022024576     1.708975947214    -3.267895964182    12.000000000000
         C            3.545902975424     0.287592947214    -1.799506964182    12.000000000000
         C            4.405117975424    -0.442067052786     0.318987035818    12.000000000000
         C            4.634635975424     0.015329947214    -0.978000964182    12.000000000000
         H            1.426494975424     0.325842947214    -2.019875964182     1.007825032230
         H            2.932823975424    -0.959501052786     1.791705035818     1.007825032230
         H           -2.488501024576    -1.567148052786     4.103914035818     1.007825032230
         O           -0.093971024576    -1.561477052786     2.936700035818    15.994914619570
         H           -1.547403024576     2.389862947214     0.036994035818     1.007825032230
         H           -0.462212024576    -1.136840052786    -2.132252964182     1.007825032230
         H           -2.424572024576     3.404287947214    -2.044354964182     1.007825032230
         H           -1.348307024576    -0.135743052786    -4.212449964182     1.007825032230
         H           -2.316084024576     2.146357947214    -4.176759964182     1.007825032230
         H            3.705074975424     0.640846947214    -2.809511964182     1.007825032230
         H            5.236041975424    -0.657370052786     0.976957035818     1.007825032230
         H           -3.437768024576     0.463371947214     0.526052035818     1.007825032230
         H           -4.413427024576    -0.470457052786     2.838545035818     1.007825032230
         H            5.643581975424     0.155863947214    -1.339754964182     1.007825032230

  Charge       = 0
  Multiplicity = 1
  Basis Set: 6-311+G*
    Blend: 6-311+G*
  Basis Set: (6-311+G* AUX)
    Blend: HEAVY-AUG-CC-PVTZ-JKFIT

    Orbital Energies [Eh]
    ---------------------

    Doubly Occupied:

       1A    -19.208377     2A    -14.472544     3A    -14.467252
       4A    -10.380878     5A    -10.367935     6A    -10.342764
       7A    -10.320060     8A    -10.318328     9A    -10.308147
      10A    -10.307372    11A    -10.306636    12A    -10.305879
      13A    -10.305366    14A    -10.293096    15A    -10.292680
      16A    -10.290433    17A    -10.289772    18A    -10.287157
      19A    -10.285951    20A    -10.280457    21A     -1.125939
      22A     -1.069941    23A     -1.050478    24A     -0.983191
      25A     -0.961365    26A     -0.911797    27A     -0.874734
      28A     -0.866748    29A     -0.854232    30A     -0.853314
      31A     -0.813675    32A     -0.770457    33A     -0.727240
      34A     -0.725632    35A     -0.712130    36A     -0.695927
      37A     -0.680466    38A     -0.663525    39A     -0.639111
      40A     -0.615883    41A     -0.600912    42A     -0.584292
      43A     -0.581718    44A     -0.563855    45A     -0.554172
      46A     -0.538752    47A     -0.534161    48A     -0.527971
      49A     -0.522413    50A     -0.516282    51A     -0.513665
      52A     -0.511643    53A     -0.498290    54A     -0.491889
      55A     -0.478055    56A     -0.474531    57A     -0.450473
      58A     -0.449933    59A     -0.445555    60A     -0.437657
      61A     -0.429734    62A     -0.407329    63A     -0.366763
      64A     -0.349588    65A     -0.341774    66A     -0.337720
      67A     -0.334962    68A     -0.309533    69A     -0.258870

  @DF-RKS Final Energy:  -840.86591935140325

   => Energetics <=

    Nuclear Repulsion Energy =           1416.8085330502035504
    One-Electron Energy =               -3952.2773661946657739
    Two-Electron Energy =                1777.3109104371135345
    DFT Exchange-Correlation Energy =     -82.6840365819459748
    Empirical Dispersion Energy =          -0.0239600621085961
    VV10 Nonlocal Energy =                  0.0000000000000000
    Total Energy =                       -840.8659193514032495

  Dipole Moment: [D]
     X:    -1.9217      Y:     1.6186      Z:    -2.2896     Total:     3.3993

*** Psi4 exiting successfully. Buy a developer a beer!
