                               Psi4 1.5 release

  ==> Input File <==

--------------------------------------------------------------------------
molecule {
0 1
 C   -0.384938   -0.160076    0.585095
 N    0.871063   -0.658515    0.404889
 C    1.793435   -0.387024   -0.634509
 C    2.695531   -1.398156   -0.980961
 H    1.231278   -1.165697    1.217727
 C    1.869691    0.853274   -1.276024
 C   -0.993241   -0.314003    1.811153
 N   -1.236208   -0.926128    3.975057
 C   -2.342433    0.013752    2.252779
 C   -0.322101   -0.945265    2.944486
 C   -2.449787   -0.356161    3.548533
 C   -1.101786    0.459772   -0.558317
 C   -1.179271   -0.210772   -1.784182
 C   -1.704139    1.714341   -0.422657
 C   -1.858863    0.361670   -2.853554
 C   -2.377701    2.288942   -1.498060
 C   -2.457700    1.613572   -2.714037
 C    3.653056   -1.176281   -1.965052
 C    2.817608    1.060240   -2.273409
 C    3.712535    0.050767   -2.623543
 H    2.635082   -2.353913   -0.477422
 H    1.199536    1.651155   -0.993478
 H   -1.043305   -1.304400    4.881932
 O    0.842007   -1.435706    3.002069
 H   -0.706135   -1.177051   -1.893890
 H   -1.629723    2.240219    0.519560
 H   -1.919332   -0.166407   -3.795104
 H   -2.835303    3.262545   -1.386359
 H   -2.981401    2.059380   -3.548711
 H    4.347553   -1.964951   -2.220432
 H    2.864216    2.021430   -2.767098
 H   -3.117116    0.458902    1.654356
 H   -3.283937   -0.278342    4.222185
 H    4.451309    0.220465   -3.394260
}
memory 8.166666666666666GB
set_num_threads(2)
psi4_io.set_default_path("/scratch/bdw2292/Psi4-1_16_Index_0-farH_in17")
set freeze_core True
E, wfn = energy('wb97x-d/6-311+G*',return_wfn=True)
oeprop(wfn,"WIBERG_LOWDIN_INDICES")
clean()
--------------------------------------------------------------------------

    Molecular point group: c1

    Geometry (in Angstrom), charge = 0, multiplicity = 1:

       Center              X                  Y                   Z               Mass
    ------------   -----------------  -----------------  -----------------  -----------------
         C           -0.384937966201    -0.160075941326     0.585095031379    12.000000000000
         N            0.871063033799    -0.658514941326     0.404889031379    14.003074004430
         C            1.793435033799    -0.387023941326    -0.634508968621    12.000000000000
         C            2.695531033799    -1.398155941326    -0.980960968621    12.000000000000
         H            1.231278033799    -1.165696941326     1.217727031379     1.007825032230
         C            1.869691033799     0.853274058674    -1.276023968621    12.000000000000
         C           -0.993240966201    -0.314002941326     1.811153031379    12.000000000000
         N           -1.236207966201    -0.926127941326     3.975057031379    14.003074004430
         C           -2.342432966201     0.013752058674     2.252779031379    12.000000000000
         C           -0.322100966201    -0.945264941326     2.944486031379    12.000000000000
         C           -2.449786966201    -0.356160941326     3.548533031379    12.000000000000
         C           -1.101785966201     0.459772058674    -0.558316968621    12.000000000000
         C           -1.179270966201    -0.210771941326    -1.784181968621    12.000000000000
         C           -1.704138966201     1.714341058674    -0.422656968621    12.000000000000
         C           -1.858862966201     0.361670058674    -2.853553968621    12.000000000000
         C           -2.377700966201     2.288942058674    -1.498059968621    12.000000000000
         C           -2.457699966201     1.613572058674    -2.714036968621    12.000000000000
         C            3.653056033799    -1.176280941326    -1.965051968621    12.000000000000
         C            2.817608033799     1.060240058674    -2.273408968621    12.000000000000
         C            3.712535033799     0.050767058674    -2.623542968621    12.000000000000
         H            2.635082033799    -2.353912941326    -0.477421968621     1.007825032230
         H            1.199536033799     1.651155058674    -0.993477968621     1.007825032230
         H           -1.043304966201    -1.304399941326     4.881932031379     1.007825032230
         O            0.842007033799    -1.435705941326     3.002069031379    15.994914619570
         H           -0.706134966201    -1.177050941326    -1.893889968621     1.007825032230
         H           -1.629722966201     2.240219058674     0.519560031379     1.007825032230
         H           -1.919331966201    -0.166406941326    -3.795103968621     1.007825032230
         H           -2.835302966201     3.262545058674    -1.386358968621     1.007825032230
         H           -2.981400966201     2.059380058674    -3.548710968621     1.007825032230
         H            4.347553033799    -1.964950941326    -2.220431968621     1.007825032230
         H            2.864216033799     2.021430058674    -2.767097968621     1.007825032230
         H           -3.117115966201     0.458902058674     1.654356031379     1.007825032230
         H           -3.283936966201    -0.278341941326     4.222185031379     1.007825032230
         H            4.451309033799     0.220465058674    -3.394259968621     1.007825032230

  Charge       = 0
  Multiplicity = 1
  Basis Set: 6-311+G*
    Blend: 6-311+G*
  Basis Set: (6-311+G* AUX)
    Blend: HEAVY-AUG-CC-PVTZ-JKFIT

    Orbital Energies [Eh]
    ---------------------

    Doubly Occupied:

       1A    -19.206713     2A    -14.469272     3A    -14.465979
       4A    -10.379332     5A    -10.364897     6A    -10.340014
       7A    -10.317868     8A    -10.316997     9A    -10.305165
      10A    -10.304439    11A    -10.304103    12A    -10.303343
      13A    -10.302417    14A    -10.295131    15A    -10.294883
      16A    -10.293202    17A    -10.292930    18A    -10.290291
      19A    -10.284442    20A    -10.280036    21A     -1.124424
      22A     -1.069812    23A     -1.049226    24A     -0.979743
      25A     -0.962229    26A     -0.909668    27A     -0.872961
      28A     -0.863636    29A     -0.855640    30A     -0.853462
      31A     -0.813829    32A     -0.768807    33A     -0.725887
      34A     -0.721859    35A     -0.713786    36A     -0.695303
      37A     -0.680192    38A     -0.664816    39A     -0.636762
      40A     -0.617521    41A     -0.599375    42A     -0.582474
      43A     -0.582064    44A     -0.562399    45A     -0.554055
      46A     -0.541222    47A     -0.533766    48A     -0.526166
      49A     -0.521522    50A     -0.516621    51A     -0.514199
      52A     -0.510655    53A     -0.498301    54A     -0.482022
      55A     -0.479030    56A     -0.474314    57A     -0.450822
      58A     -0.448894    59A     -0.444649    60A     -0.439589
      61A     -0.429175    62A     -0.406164    63A     -0.365976
      64A     -0.346647    65A     -0.343301    66A     -0.337717
      67A     -0.332170    68A     -0.309126    69A     -0.260045

  @DF-RKS Final Energy:  -840.87264232888151

   => Energetics <=

    Nuclear Repulsion Energy =           1426.5993191413019758
    One-Electron Energy =               -3971.9822984323350283
    Two-Electron Energy =                1787.2198609727111034
    DFT Exchange-Correlation Energy =     -82.6850843285367887
    Empirical Dispersion Energy =          -0.0244396820230345
    VV10 Nonlocal Energy =                  0.0000000000000000
    Total Energy =                       -840.8726423288815113

  Dipole Moment: [D]
     X:    -2.1717      Y:     1.4729      Z:    -2.0431     Total:     3.3256

*** Psi4 exiting successfully. Buy a developer a beer!
