                               Psi4 1.5 release

  ==> Input File <==

--------------------------------------------------------------------------
molecule {
0 1
 C   -0.591282   -0.242651    0.322701
 N    0.633031   -0.896436    0.401132
 C    1.894109   -0.601730   -0.178598
 C    2.776982   -1.671542   -0.475924
 H    0.669949   -1.572236    1.189214
 C    2.326240    0.729495   -0.410751
 C   -1.597767   -0.577124    1.240125
 N   -2.589391   -1.530611    3.054333
 C   -2.995403   -0.208274    1.274116
 C   -1.383318   -1.469601    2.400569
 C   -3.552638   -0.782853    2.374604
 C   -0.809081    0.799442   -0.720581
 C   -1.339275    2.069555   -0.375145
 C   -0.555749    0.512705   -2.087531
 C   -1.583933    3.029755   -1.365345
 C   -0.799637    1.478476   -3.072574
 C   -1.313591    2.742427   -2.718582
 C    4.039636   -1.414761   -1.027210
 C    3.589591    0.975125   -0.965966
 C    4.454794   -0.091973   -1.281188
 H    2.471552   -2.701773   -0.279525
 H    1.683079    1.573535   -0.158427
 H   -2.717771   -2.067474    3.899480
 O   -0.332674   -2.071403    2.738928
 H   -1.550664    2.298934    0.671141
 H   -0.169311   -0.468405   -2.370341
 H   -1.985243    4.005012   -1.084671
 H   -0.591780    1.248763   -4.118982
 H   -1.503372    3.493084   -3.487997
 H    4.701347   -2.251029   -1.259375
 H    3.900338    2.004728   -1.151685
 H   -3.516615    0.414011    0.559911
 H   -4.566413   -0.733978    2.746792
 H    5.437418    0.104151   -1.713759
}
set optking {
  frozen_dihedral = ("
    1 2 3 4
    2 1 12 13
    7 1 2 3
  ")
}
set {
  geom_maxiter 400
  g_convergence GAU_LOOSE
  dynamic_level 1
}
memory 8.166666666666666GB
set_num_threads(2)
psi4_io.set_default_path("/scratch/bdw2292/Psi4-1_16_Index_0-farH_in17")
for _ in range(1):
  try:
    set opt_coordinates both
    optimize('wb97x-d/6-311G')
    break
  except OptimizationConvergenceError:
    break
  else:
    try:
      set opt_coordinates cartesian
      optimize('wb97x-d/6-311G')
      break
    except OptimizationConvergenceError:
      pass
clean()
--------------------------------------------------------------------------

    Molecular point group: c1
  Charge       = 0
  Multiplicity = 1
  Basis Set: 6-311G
    Blend: 6-311G
  Basis Set: (6-311G AUX)
    Blend: CC-PVTZ-JKFIT
  @DF-RKS Final Energy:  -840.64845569979809
    Total Energy =                       -840.6484556997980917
    Molecular point group: c1
  Basis Set: 6-311G
    Blend: 6-311G
  Basis Set: (6-311G AUX)
    Blend: CC-PVTZ-JKFIT
  Basis Set: 6-311G
    Blend: 6-311G
  Basis Set: (6-311G AUX)
    Blend: CC-PVTZ-JKFIT
  @DF-RKS Final Energy:  -840.65550935338808
    Total Energy =                       -840.6555093533879699
  Basis Set: 6-311G
    Blend: 6-311G
  Basis Set: (6-311G AUX)
    Blend: CC-PVTZ-JKFIT
  Basis Set: 6-311G
    Blend: 6-311G
  @DF-RKS Final Energy:  -840.65595537174499
    Total Energy =                       -840.6559553717451081
  @DF-RKS Final Energy:  -840.65597146506695
    Total Energy =                       -840.6559714650669548
  @DF-RKS Final Energy:  -840.65613489766451
    Total Energy =                       -840.6561348976644013
  Basis Set: (6-311G AUX)
    Blend: CC-PVTZ-JKFIT
  Basis Set: 6-311G
    Blend: 6-311G
  Basis Set: (6-311G AUX)
    Blend: CC-PVTZ-JKFIT
  @DF-RKS Final Energy:  -840.65613848593944
    Total Energy =                       -840.6561384859395503
  Basis Set: 6-311G
    Blend: 6-311G
  Basis Set: (6-311G AUX)
    Blend: CC-PVTZ-JKFIT
  Charge       = 0
  Multiplicity = 1
  Basis Set: 6-311G
    Blend: 6-311G
  Basis Set: (6-311G AUX)
    Blend: CC-PVTZ-JKFIT

    Orbital Energies [Eh]
    ---------------------

    Doubly Occupied:

       1A    -19.206384     2A    -14.470647     3A    -14.466912
       4A    -10.386871     5A    -10.369358     6A    -10.344682
       7A    -10.320762     8A    -10.319256     9A    -10.306993
      10A    -10.306135    11A    -10.305684    12A    -10.305081
      13A    -10.304132    14A    -10.297032    15A    -10.296811
      16A    -10.295440    17A    -10.295196    18A    -10.292374
      19A    -10.289247    20A    -10.281511    21A     -1.137496
      22A     -1.074027    23A     -1.056861    24A     -0.984471
      25A     -0.967665    26A     -0.913148    27A     -0.876470
      28A     -0.866924    29A     -0.859120    30A     -0.857892
      31A     -0.818058    32A     -0.772526    33A     -0.729434
      34A     -0.724841    35A     -0.716662    36A     -0.698101
      37A     -0.682489    38A     -0.668006    39A     -0.640811
      40A     -0.620212    41A     -0.599925    42A     -0.585353
      43A     -0.582766    44A     -0.566517    45A     -0.555316
      46A     -0.545667    47A     -0.536305    48A     -0.529147
      49A     -0.524212    50A     -0.519844    51A     -0.516771
      52A     -0.512129    53A     -0.497196    54A     -0.482214
      55A     -0.480234    56A     -0.474976    57A     -0.451412
      58A     -0.449511    59A     -0.445131    60A     -0.439645
      61A     -0.429382    62A     -0.404339    63A     -0.365743
      64A     -0.346662    65A     -0.342715    66A     -0.334539
      67A     -0.331599    68A     -0.307716    69A     -0.256772

  @DF-RKS Final Energy:  -840.65615732313256

   => Energetics <=

    Nuclear Repulsion Energy =           1426.6021858211101971
    One-Electron Energy =               -3971.2506927732233635
    Two-Electron Energy =                1786.6923567196661224
    DFT Exchange-Correlation Energy =     -82.6755733067455623
    Empirical Dispersion Energy =          -0.0244337839399326
    VV10 Nonlocal Energy =                  0.0000000000000000
    Total Energy =                       -840.6561573231325610

  Dipole Moment: [D]
     X:    -1.1706      Y:     2.3497      Z:    -2.0561     Total:     3.3345

    Molecular point group: c1
  Basis Set: 6-311G
    Blend: 6-311G
  Basis Set: (6-311G AUX)
    Blend: CC-PVTZ-JKFIT

  -Total Gradient:
     Atom            X                  Y                   Z
    ------   -----------------  -----------------  -----------------
       1       -0.000103097018    -0.000011373928     0.000299371584
       2       -0.000347433698    -0.000993911438    -0.001376651500
       3        0.000029385346     0.000431064068     0.000344285896
       4        0.000127845572     0.000079397732     0.000215216673
       5       -0.000043925779     0.000073868961     0.000014143370
       6       -0.000223022075    -0.000026257918     0.000060017701
       7        0.000133055853     0.000307947879     0.000365287784
       8       -0.000304315757     0.000137596041    -0.000158615252
       9       -0.000082961008     0.000428165654    -0.000117491957
      10        0.001043376215    -0.000517927286     0.000268898569
      11        0.000136071316    -0.000186482308     0.000118939345
      12        0.000302206873     0.000296926715     0.000047801828
      13       -0.000227029779    -0.000161818363    -0.000104445035
      14        0.000040046395    -0.000018941218     0.000041660188
      15        0.000043245838    -0.000048218773     0.000063017168
      16       -0.000066336289     0.000052723150    -0.000023653696
      17        0.000070538336    -0.000030311267    -0.000058517950
      18       -0.000074759553     0.000014111941     0.000047375630
      19        0.000001074688    -0.000061467122    -0.000027158116
      20       -0.000008179855     0.000028243775     0.000014657610
      21       -0.000000083022    -0.000035445309     0.000029826299
      22        0.000081220636     0.000013857700     0.000019422847
      23       -0.000052993588    -0.000059551123     0.000039731937
      24       -0.000488668222     0.000319812260     0.000056791119
      25       -0.000111017852    -0.000017350016     0.000057799618
      26        0.000003547978    -0.000015715318    -0.000021633122
      27       -0.000027912067     0.000037890119     0.000009722206
      28        0.000020848149     0.000005100998    -0.000060057480
      29       -0.000011015876     0.000029314943    -0.000040045301
      30        0.000010802874    -0.000018050599    -0.000019462733
      31        0.000018158423     0.000031640907    -0.000000073081
      32       -0.000021108001     0.000144441681    -0.000082598497
      33       -0.000061994283     0.000036871553     0.000023325929
      34        0.000023065961     0.000000730748    -0.000011304312

  **** Optimization is complete! (in 7 steps) ****
    Final optimized geometry and variables:
    Molecular point group: c1

    Geometry (in Angstrom), charge = 0, multiplicity = 1:

    C           -0.571223868079    -0.220429871708     0.372300460195
    N            0.609733244423    -0.899149829550     0.426440413446
    C            1.850545964163    -0.568159614412    -0.169163870621
    C            2.701862377178    -1.620466843672    -0.521711562584
    H            0.617596422231    -1.653476561333     1.118248313570
    C            2.271025706870     0.751271409395    -0.360961879911
    C           -1.570768647708    -0.548213530364     1.261895972599
    N           -2.598130744470    -1.620384639932     2.967196512468
    C           -2.942889884510    -0.070379983225     1.369533573473
    C           -1.395027672258    -1.563044794147     2.297648388451
    C           -3.523477403957    -0.725772340064     2.399762106287
    C           -0.785573228172     0.797301840326    -0.687958092507
    C           -1.253626782026     2.074114616397    -0.364137865166
    C           -0.536526379554     0.475503400073    -2.026777431525
    C           -1.464511957760     3.018429420349    -1.365930286416
    C           -0.755783329428     1.417480529203    -3.025586997043
    C           -1.217072726220     2.691860143959    -2.697571803222
    C            3.951632420361    -1.356782157771    -1.071827075260
    C            3.514998762111     1.005893728294    -0.930483319255
    C            4.360740936979    -0.042143337095    -1.288620007063
    H            2.373441119663    -2.639433577404    -0.365081549232
    H            1.637180701005     1.571813996604    -0.061067853862
    H           -2.767472013559    -2.245523841855     3.731004042780
    O           -0.381146133189    -2.277122241724     2.543259122389
    H           -1.437037342898     2.325753390366     0.671689107147
    H           -0.170077709731    -0.510189360502    -2.278796189474
    H           -1.819477038674     4.006400446271    -1.106069879122
    H           -0.565536012777     1.158597949490    -4.058038168825
    H           -1.382349929315     3.424854783987    -3.475382908389
    H            4.601909593645    -2.179425778461    -1.336368438637
    H            3.828128089088     2.030330470287    -1.079514961783
    H           -3.413404054922     0.660645354788     0.736513142972
    H           -4.521796886689    -0.649881323035     2.791297097369
    H            5.329004130479     0.162835621028    -1.723561914590

*** Psi4 exiting successfully. Buy a developer a beer!
