                               Psi4 1.5 release

  ==> Input File <==

--------------------------------------------------------------------------
molecule {
0 1
 C   -0.622964   -0.348127    0.021203
 N    0.707057   -0.675959    0.340817
 C    2.041277   -0.357659   -0.054456
 C    2.989966   -1.409150    0.147517
 H    0.719733   -1.371654    1.110307
 C    2.513207    0.829829   -0.669996
 C   -1.595343   -0.752764    0.957785
 N   -2.571606   -1.924101    2.657219
 C   -2.962521   -0.309713    1.135026
 C   -1.380508   -1.798912    1.986646
 C   -3.512541   -1.027096    2.152196
 C   -1.016749    0.802103   -0.844520
 C   -0.431631    2.087227   -0.741512
 C   -1.931599    0.562083   -1.903852
 C   -0.754113    3.099089   -1.654964
 C   -2.257730    1.576511   -2.813326
 C   -1.668015    2.850775   -2.697836
 C    4.337613   -1.251830   -0.199511
 C    3.866362    0.979950   -1.012203
 C    4.790615   -0.053184   -0.776468
 H    2.669698   -2.357540    0.588433
 H    1.857253    1.653996   -0.910122
 H   -2.698753   -2.581830    3.412423
 O   -0.332964   -2.450256    2.230566
 H    0.242086    2.300197    0.089969
 H   -2.376900   -0.429176   -2.011829
 H   -0.297475    4.085143   -1.553070
 H   -2.968526    1.375839   -3.616874
 H   -1.918539    3.639614   -3.409260
 H    5.036092   -2.070108   -0.016204
 H    4.199349    1.913371   -1.470323
 H   -3.473415    0.452799    0.563049
 H   -4.506934   -0.986109    2.574141
 H    5.841678    0.071983   -1.042084
}
set optking {
  frozen_dihedral = ("
    2 1 12 13
    7 1 2 3
    1 2 3 4
  ")
}
set {
  geom_maxiter 400
  g_convergence GAU_LOOSE
  dynamic_level 1
}
memory 8.166666666666666GB
set_num_threads(2)
psi4_io.set_default_path("/scratch/bdw2292/Psi4-1_16_Index_0-farH_in17")
for _ in range(1):
  try:
    set opt_coordinates both
    optimize('wb97x-d/6-311G')
    break
  except OptimizationConvergenceError:
    break
  else:
    try:
      set opt_coordinates cartesian
      optimize('wb97x-d/6-311G')
      break
    except OptimizationConvergenceError:
      pass
clean()
--------------------------------------------------------------------------

    Molecular point group: c1
  Charge       = 0
  Multiplicity = 1
  Basis Set: 6-311G
    Blend: 6-311G
  Basis Set: (6-311G AUX)
    Blend: CC-PVTZ-JKFIT
  @DF-RKS Final Energy:  -840.62260802252160
    Total Energy =                       -840.6226080225216037
    Molecular point group: c1
  Basis Set: 6-311G
    Blend: 6-311G
  Basis Set: (6-311G AUX)
    Blend: CC-PVTZ-JKFIT
  Basis Set: 6-311G
    Blend: 6-311G
  Basis Set: (6-311G AUX)
    Blend: CC-PVTZ-JKFIT
  @DF-RKS Final Energy:  -839.47192952498222
    Total Energy =                       -839.4719295249823290
  Basis Set: 6-311G
    Blend: 6-311G
  Basis Set: (6-311G AUX)
    Blend: CC-PVTZ-JKFIT
  Basis Set: 6-311G
    Blend: 6-311G
  @DF-RKS Final Energy:  -839.76262612539904
    Total Energy =                       -839.7626261253990378
  @DF-RKS Final Energy:  -840.21577199014735
    Total Energy =                       -840.2157719901473456
  @DF-RKS Final Energy:  -840.50045989350338
    Total Energy =                       -840.5004598935032618
  @DF-RKS Final Energy:  -840.58259815426936
    Total Energy =                       -840.5825981542693626
  @DF-RKS Final Energy:  -840.60721784938835
    Total Energy =                       -840.6072178493882348
  @DF-RKS Final Energy:  -840.61711269502030
    Total Energy =                       -840.6171126950202961
  @DF-RKS Final Energy:  -840.62689775381125
    Total Energy =                       -840.6268977538111358
  @DF-RKS Final Energy:  -840.49748290566595
    Total Energy =                       -840.4974829056660610
  @DF-RKS Final Energy:  -840.62689777311311
    Total Energy =                       -840.6268977731132281
  @DF-RKS Final Energy:  -840.62997745147470
    Total Energy =                       -840.6299774514747014
  @DF-RKS Final Energy:  -840.63171021319943
    Total Energy =                       -840.6317102131995398
  @DF-RKS Final Energy:  -840.63289962227759
    Total Energy =                       -840.6328996222775913
  @DF-RKS Final Energy:  -840.63369293579444
    Total Energy =                       -840.6336929357944427
  @DF-RKS Final Energy:  -840.63427583851671
    Total Energy =                       -840.6342758385167144
  @DF-RKS Final Energy:  -840.63478708466960
    Total Energy =                       -840.6347870846694832
  @DF-RKS Final Energy:  -840.63515575548502
    Total Energy =                       -840.6351557554850160
  @DF-RKS Final Energy:  -840.63514141752819
    Total Energy =                       -840.6351414175283026
  @DF-RKS Final Energy:  -840.63519857575909
    Total Energy =                       -840.6351985757590910
  Basis Set: (6-311G AUX)
    Blend: CC-PVTZ-JKFIT
  Basis Set: 6-311G
    Blend: 6-311G
  Basis Set: (6-311G AUX)
    Blend: CC-PVTZ-JKFIT
  @DF-RKS Final Energy:  -840.63530196293596
    Total Energy =                       -840.6353019629360688
  Basis Set: 6-311G
    Blend: 6-311G
  Basis Set: (6-311G AUX)
    Blend: CC-PVTZ-JKFIT
  Charge       = 0
  Multiplicity = 1
  Basis Set: 6-311G
    Blend: 6-311G
  Basis Set: (6-311G AUX)
    Blend: CC-PVTZ-JKFIT

    Orbital Energies [Eh]
    ---------------------

    Doubly Occupied:

       1A    -19.206420     2A    -14.469318     3A    -14.467057
       4A    -10.385688     5A    -10.376276     6A    -10.349492
       7A    -10.325207     8A    -10.317869     9A    -10.305730
      10A    -10.304749    11A    -10.304217    12A    -10.302951
      13A    -10.302294    14A    -10.301489    15A    -10.300650
      16A    -10.299016    17A    -10.297104    18A    -10.295761
      19A    -10.288181    20A    -10.280953    21A     -1.137382
      22A     -1.070460    23A     -1.056617    24A     -0.984502
      25A     -0.970359    26A     -0.914663    27A     -0.875403
      28A     -0.865993    29A     -0.861773    30A     -0.860692
      31A     -0.817634    32A     -0.772903    33A     -0.732077
      34A     -0.727873    35A     -0.714202    36A     -0.696125
      37A     -0.683818    38A     -0.666679    39A     -0.646727
      40A     -0.617231    41A     -0.601607    42A     -0.587961
      43A     -0.584938    44A     -0.561231    45A     -0.555112
      46A     -0.550945    47A     -0.542770    48A     -0.528936
      49A     -0.525171    50A     -0.518365    51A     -0.514224
      52A     -0.511556    53A     -0.497650    54A     -0.485510
      55A     -0.476005    56A     -0.472821    57A     -0.455184
      58A     -0.451096    59A     -0.445452    60A     -0.434967
      61A     -0.430976    62A     -0.403406    63A     -0.363411
      64A     -0.346060    65A     -0.341026    66A     -0.337892
      67A     -0.333383    68A     -0.308778    69A     -0.255738

  @DF-RKS Final Energy:  -840.63531570902740

   => Energetics <=

    Nuclear Repulsion Energy =           1411.7523258390697265
    One-Electron Energy =               -3941.4417147832823503
    Two-Electron Energy =                1771.7490342148873879
    DFT Exchange-Correlation Energy =     -82.6715717054895265
    Empirical Dispersion Energy =          -0.0233892742127598
    VV10 Nonlocal Energy =                  0.0000000000000000
    Total Energy =                       -840.6353157090275090

  Dipole Moment: [D]
     X:    -0.8118      Y:     1.3794      Z:    -2.4584     Total:     2.9335

    Molecular point group: c1
  Basis Set: 6-311G
    Blend: 6-311G
  Basis Set: (6-311G AUX)
    Blend: CC-PVTZ-JKFIT

  -Total Gradient:
     Atom            X                  Y                   Z
    ------   -----------------  -----------------  -----------------
       1       -0.000014115101     0.000640619931     0.004168531993
       2        0.002430504171    -0.001745093162    -0.002018265821
       3        0.000917623857    -0.002811725658    -0.010811380409
       4       -0.001343303082     0.002998778896     0.008817477073
       5       -0.000037960942    -0.000073626211     0.000175806220
       6        0.000311124019     0.000149822820     0.000103937116
       7        0.001027364829    -0.003900309020    -0.002198606112
       8       -0.000031458663     0.000188083398     0.000135224199
       9       -0.000009927346    -0.000120002240     0.000016617774
      10       -0.000170723082    -0.000492847108    -0.000495576144
      11       -0.000047801700    -0.000031123827    -0.000058493729
      12       -0.008266596787     0.008398387396     0.004111116435
      13        0.004829313578    -0.003722118209    -0.001780029125
      14       -0.000055863255     0.000025182917    -0.000027240634
      15       -0.000025028353    -0.000016860633     0.000071284172
      16        0.000035616973     0.000029993943    -0.000063516447
      17       -0.000056090072    -0.000075304553    -0.000089597919
      18        0.000032474600    -0.000041612139     0.000002616208
      19        0.000085766341     0.000063100048    -0.000075954352
      20       -0.000089320658     0.000083427765     0.000037144703
      21       -0.000032931229     0.000008682543    -0.000002010497
      22       -0.000245587785    -0.000061125764    -0.000312740955
      23       -0.000003261439     0.000032480262     0.000049769337
      24        0.000225065727     0.000158312829     0.000105218800
      25        0.000295819216     0.000144608782     0.000438568294
      26        0.000005867832     0.000008026608    -0.000014401589
      27       -0.000005119086    -0.000000221327     0.000021729949
      28       -0.000012317778    -0.000002614069    -0.000001373311
      29       -0.000014885006    -0.000020158886     0.000027123788
      30       -0.000040941762     0.000035574041     0.000002046452
      31        0.000024515712     0.000031549190    -0.000035046214
      32        0.000028155767     0.000014094049    -0.000023480918
      33       -0.000005382402    -0.000000010478     0.000024221305
      34       -0.000003692286     0.000007393579     0.000002149634

  **** Optimization is complete! (in 11 steps) ****
    Final optimized geometry and variables:
    Molecular point group: c1

    Geometry (in Angstrom), charge = 0, multiplicity = 1:

    C           -0.581881045296    -0.212187462977     0.092216271458
    N            0.596999200394    -0.272863104006     0.780679117404
    C            1.833324641899     0.416806404288     0.737013009252
    C            2.960062187781    -0.307205025963     1.152942105225
    H            0.514891592961    -0.889435836640     1.603070123747
    C            1.950499954735     1.803916823671     0.602188849748
    C           -1.660283826279    -0.882650428862     0.658895489871
    N           -2.809057981018    -2.141309965238     2.149504713356
    C           -3.061825088121    -0.946136795331     0.262204026575
    C           -1.548353943285    -1.655656018937     1.889561844649
    C           -3.718114919118    -1.698558988505     1.174227757462
    C           -0.714598226997     0.334014594854    -1.296774287417
    C           -0.122722873371     1.497326316041    -1.801907697635
    C           -1.366786807592    -0.508059368008    -2.221181373627
    C           -0.234637433952     1.839282265673    -3.148017712396
    C           -1.474748199689    -0.170304275749    -3.564095208547
    C           -0.913241065051     1.013177174741    -4.036063291551
    C            4.193811882013     0.315873692685     1.292024578723
    C            3.191402963887     2.424449694814     0.724787146068
    C            4.322418907204     1.683564428648     1.054287435255
    H            2.857735325836    -1.368071793599     1.338170683271
    H            1.066623102607     2.409424848338     0.483714906008
    H           -3.018304199752    -2.713031936829     2.944454689480
    O           -0.520452827090    -1.873165225639     2.601619049265
    H            0.401510660534     2.174903621469    -1.157363381078
    H           -1.765125562459    -1.451860183710    -1.882145176142
    H            0.219212351597     2.756319403632    -3.497622588595
    H           -1.982054682778    -0.842526113288    -4.242404293713
    H           -0.993125764497     1.279957211571    -5.080802944442
    H            5.052546883679    -0.266354151905     1.596276867015
    H            3.261897955535     3.496880676756     0.603295689377
    H           -3.509877356264    -0.442900589802    -0.575338655514
    H           -4.760726478084    -1.951417211791     1.239430479429
    H            5.282530103214     2.169112712656     1.158097093629

*** Psi4 exiting successfully. Buy a developer a beer!
