                               Psi4 1.5 release

  ==> Input File <==

--------------------------------------------------------------------------
molecule {
0 1
 C   -0.610981   -0.276562    0.305075
 N    0.604182   -0.879561    0.422556
 C    1.861058   -0.539932   -0.134087
 C    2.744873   -1.598181   -0.381412
 H    0.608317   -1.633073    1.117132
 C    2.270942    0.768571   -0.401965
 C   -1.616953   -0.617262    1.178295
 N   -2.671019   -1.688128    2.864353
 C   -2.987023   -0.134150    1.263378
 C   -1.456533   -1.630977    2.215574
 C   -3.584890   -0.786411    2.285641
 C   -0.831067    0.797487   -0.703227
 C   -0.831115    2.140837   -0.317004
 C   -0.955010    0.468661   -2.054122
 C   -0.980062    3.142714   -1.271558
 C   -1.103423    1.472455   -3.007786
 C   -1.115168    2.809872   -2.618572
 C    4.014265   -1.352971   -0.889877
 C    3.538928    1.003663   -0.928691
 C    4.416294   -0.048862   -1.174632
 H    2.422290   -2.610238   -0.175354
 H    1.618170    1.600246   -0.195937
 H   -2.852337   -2.306384    3.631054
 O   -0.437827   -2.329648    2.485014
 H   -0.724824    2.391871    0.730276
 H   -0.929390   -0.570302   -2.353389
 H   -0.986084    4.179997   -0.965588
 H   -1.203440    1.210362   -4.051997
 H   -1.227044    3.588962   -3.360136
 H    4.685321   -2.181383   -1.071409
 H    3.843030    2.021016   -1.134308
 H   -3.434285    0.612827    0.631451
 H   -4.585589   -0.701514    2.669114
 H    5.400671    0.143304   -1.577896
}
memory 8.166666666666666GB
set_num_threads(2)
psi4_io.set_default_path("/scratch/bdw2292/Psi4-1_16_Index_0-farH_in17")
set freeze_core True
E, wfn = energy('wb97x-d/6-311+G*',return_wfn=True)
oeprop(wfn,"WIBERG_LOWDIN_INDICES")
clean()
--------------------------------------------------------------------------

    Molecular point group: c1

    Geometry (in Angstrom), charge = 0, multiplicity = 1:

       Center              X                  Y                   Z               Mass
    ------------   -----------------  -----------------  -----------------  -----------------
         C           -0.610980872163    -0.276562058282     0.305074990992    12.000000000000
         N            0.604182127837    -0.879561058282     0.422555990992    14.003074004430
         C            1.861058127837    -0.539932058282    -0.134087009008    12.000000000000
         C            2.744873127837    -1.598181058282    -0.381412009008    12.000000000000
         H            0.608317127837    -1.633073058282     1.117131990992     1.007825032230
         C            2.270942127837     0.768570941718    -0.401965009008    12.000000000000
         C           -1.616952872163    -0.617262058282     1.178294990992    12.000000000000
         N           -2.671018872163    -1.688128058282     2.864352990992    14.003074004430
         C           -2.987022872163    -0.134150058282     1.263377990992    12.000000000000
         C           -1.456532872163    -1.630977058282     2.215573990992    12.000000000000
         C           -3.584889872163    -0.786411058282     2.285640990992    12.000000000000
         C           -0.831066872163     0.797486941718    -0.703227009008    12.000000000000
         C           -0.831114872163     2.140836941718    -0.317004009008    12.000000000000
         C           -0.955009872163     0.468660941718    -2.054122009008    12.000000000000
         C           -0.980061872163     3.142713941718    -1.271558009008    12.000000000000
         C           -1.103422872163     1.472454941718    -3.007786009008    12.000000000000
         C           -1.115167872163     2.809871941718    -2.618572009008    12.000000000000
         C            4.014265127837    -1.352971058282    -0.889877009008    12.000000000000
         C            3.538928127837     1.003662941718    -0.928691009008    12.000000000000
         C            4.416294127837    -0.048862058282    -1.174632009008    12.000000000000
         H            2.422290127837    -2.610238058282    -0.175354009008     1.007825032230
         H            1.618170127837     1.600245941718    -0.195937009008     1.007825032230
         H           -2.852336872163    -2.306384058282     3.631053990992     1.007825032230
         O           -0.437826872163    -2.329648058282     2.485013990992    15.994914619570
         H           -0.724823872163     2.391870941718     0.730275990992     1.007825032230
         H           -0.929389872163    -0.570302058282    -2.353389009008     1.007825032230
         H           -0.986083872163     4.179996941718    -0.965588009008     1.007825032230
         H           -1.203439872163     1.210361941718    -4.051997009008     1.007825032230
         H           -1.227043872163     3.588961941718    -3.360136009008     1.007825032230
         H            4.685321127837    -2.181383058282    -1.071409009008     1.007825032230
         H            3.843030127837     2.021015941718    -1.134308009008     1.007825032230
         H           -3.434284872163     0.612826941718     0.631450990992     1.007825032230
         H           -4.585588872163    -0.701514058282     2.669113990992     1.007825032230
         H            5.400671127837     0.143303941718    -1.577896009008     1.007825032230

  Charge       = 0
  Multiplicity = 1
  Basis Set: 6-311+G*
    Blend: 6-311+G*
  Basis Set: (6-311+G* AUX)
    Blend: HEAVY-AUG-CC-PVTZ-JKFIT

    Orbital Energies [Eh]
    ---------------------

    Doubly Occupied:

       1A    -19.206405     2A    -14.471521     3A    -14.465512
       4A    -10.378691     5A    -10.364774     6A    -10.340801
       7A    -10.317422     8A    -10.316997     9A    -10.306001
      10A    -10.305404    11A    -10.304664    12A    -10.304119
      13A    -10.303469    14A    -10.294238    15A    -10.294184
      16A    -10.292398    17A    -10.291924    18A    -10.289491
      19A    -10.282757    20A    -10.279105    21A     -1.123718
      22A     -1.069806    23A     -1.048640    24A     -0.980879
      25A     -0.962135    26A     -0.909971    27A     -0.872874
      28A     -0.864968    29A     -0.854967    30A     -0.853477
      31A     -0.813194    32A     -0.768844    33A     -0.725009
      34A     -0.720040    35A     -0.716529    36A     -0.696223
      37A     -0.679197    38A     -0.664664    39A     -0.637841
      40A     -0.617913    41A     -0.599127    42A     -0.583021
      43A     -0.580340    44A     -0.564645    45A     -0.553496
      46A     -0.543097    47A     -0.534127    48A     -0.525917
      49A     -0.520975    50A     -0.516198    51A     -0.515241
      52A     -0.509480    53A     -0.497671    54A     -0.481901
      55A     -0.478781    56A     -0.472580    57A     -0.451571
      58A     -0.449202    59A     -0.444581    60A     -0.439285
      61A     -0.427495    62A     -0.405441    63A     -0.360918
      64A     -0.346212    65A     -0.345572    66A     -0.337257
      67A     -0.334290    68A     -0.310518    69A     -0.259361

  @DF-RKS Final Energy:  -840.86928853347888

   => Energetics <=

    Nuclear Repulsion Energy =           1423.1596020711970141
    One-Electron Energy =               -3965.1061129799936680
    Two-Electron Energy =                1783.7855223580511392
    DFT Exchange-Correlation Energy =     -82.6841988279829252
    Empirical Dispersion Energy =          -0.0241011547501850
    VV10 Nonlocal Energy =                  0.0000000000000000
    Total Energy =                       -840.8692885334788798

  Dipole Moment: [D]
     X:    -1.1086      Y:     2.4342      Z:    -2.0251     Total:     3.3549

*** Psi4 exiting successfully. Buy a developer a beer!
