                               Psi4 1.5 release

  ==> Input File <==

--------------------------------------------------------------------------
molecule {
0 1
 C   -0.566421   -0.090268    0.408827
 N    0.647149   -0.683485    0.622893
 C    1.889454   -0.427091   -0.009157
 C    2.797607   -1.482557   -0.123081
 H    0.699290   -1.196835    1.508009
 C    2.258254    0.850710   -0.440797
 C   -1.545168   -0.295450    1.369712
 N   -2.440615   -0.964881    3.343442
 C   -2.982181   -0.044152    1.363687
 C   -1.248940   -0.930122    2.654872
 C   -3.479302   -0.447591    2.554317
 C   -0.906415    0.471611   -0.926181
 C   -0.225968    0.071525   -2.085698
 C   -1.799206    1.549590   -1.021725
 C   -0.505250    0.661368   -3.312762
 C   -2.075446    2.142550   -2.249905
 C   -1.434542    1.695750   -3.402081
 C    4.049476   -1.268598   -0.692867
 C    3.504198    1.053100   -1.024304
 C    4.404589   -0.003438   -1.155546
 H    2.509963   -2.465350    0.225289
 H    1.572797    1.676580   -0.316652
 H   -2.527319   -1.360911    4.258875
 O   -0.152674   -1.397908    3.079204
 H    0.488968   -0.735294   -2.040074
 H   -2.251867    1.948049   -0.126566
 H    0.011259    0.317694   -4.198029
 H   -2.774737    2.965621   -2.301456
 H   -1.645301    2.157654   -4.356772
 H    4.744368   -2.092653   -0.778499
 H    3.778148    2.043264   -1.361842
 H   -3.566094    0.346135    0.551738
 H   -4.490121   -0.432006    2.918630
 H    5.374764    0.160364   -1.603224
}
memory 8.166666666666666GB
set_num_threads(2)
psi4_io.set_default_path("/scratch/bdw2292/Psi4-1_16_Index_0-farH_in17")
set freeze_core True
E, wfn = energy('wb97x-d/6-311+G*',return_wfn=True)
oeprop(wfn,"WIBERG_LOWDIN_INDICES")
clean()
--------------------------------------------------------------------------

    Molecular point group: c1

    Geometry (in Angstrom), charge = 0, multiplicity = 1:

       Center              X                  Y                   Z               Mass
    ------------   -----------------  -----------------  -----------------  -----------------
         C           -0.566420990723    -0.090268081105     0.408826941329    12.000000000000
         N            0.647149009277    -0.683485081105     0.622892941329    14.003074004430
         C            1.889454009277    -0.427091081105    -0.009157058671    12.000000000000
         C            2.797607009277    -1.482557081105    -0.123081058671    12.000000000000
         H            0.699290009277    -1.196835081105     1.508008941329     1.007825032230
         C            2.258254009277     0.850709918895    -0.440797058671    12.000000000000
         C           -1.545167990723    -0.295450081105     1.369711941329    12.000000000000
         N           -2.440614990723    -0.964881081105     3.343441941329    14.003074004430
         C           -2.982180990723    -0.044152081105     1.363686941329    12.000000000000
         C           -1.248939990723    -0.930122081105     2.654871941329    12.000000000000
         C           -3.479301990723    -0.447591081105     2.554316941329    12.000000000000
         C           -0.906414990723     0.471610918895    -0.926181058671    12.000000000000
         C           -0.225967990723     0.071524918895    -2.085698058671    12.000000000000
         C           -1.799205990723     1.549589918895    -1.021725058671    12.000000000000
         C           -0.505249990723     0.661367918895    -3.312762058671    12.000000000000
         C           -2.075445990723     2.142549918895    -2.249905058671    12.000000000000
         C           -1.434541990723     1.695749918895    -3.402081058671    12.000000000000
         C            4.049476009277    -1.268598081105    -0.692867058671    12.000000000000
         C            3.504198009277     1.053099918895    -1.024304058671    12.000000000000
         C            4.404589009277    -0.003438081105    -1.155546058671    12.000000000000
         H            2.509963009277    -2.465350081105     0.225288941329     1.007825032230
         H            1.572797009277     1.676579918895    -0.316652058671     1.007825032230
         H           -2.527318990723    -1.360911081105     4.258874941329     1.007825032230
         O           -0.152673990723    -1.397908081105     3.079203941329    15.994914619570
         H            0.488968009277    -0.735294081105    -2.040074058671     1.007825032230
         H           -2.251866990723     1.948048918895    -0.126566058671     1.007825032230
         H            0.011259009277     0.317693918895    -4.198029058671     1.007825032230
         H           -2.774736990723     2.965620918895    -2.301456058671     1.007825032230
         H           -1.645300990723     2.157653918895    -4.356772058671     1.007825032230
         H            4.744368009277    -2.092653081105    -0.778499058671     1.007825032230
         H            3.778148009277     2.043263918895    -1.361842058671     1.007825032230
         H           -3.566093990723     0.346134918895     0.551737941329     1.007825032230
         H           -4.490120990723    -0.432006081105     2.918629941329     1.007825032230
         H            5.374764009277     0.160363918895    -1.603224058671     1.007825032230

  Charge       = 0
  Multiplicity = 1
  Basis Set: 6-311+G*
    Blend: 6-311+G*
  Basis Set: (6-311+G* AUX)
    Blend: HEAVY-AUG-CC-PVTZ-JKFIT

    Orbital Energies [Eh]
    ---------------------

    Doubly Occupied:

       1A    -19.208492     2A    -14.467076     3A    -14.466229
       4A    -10.380773     5A    -10.367193     6A    -10.339153
       7A    -10.319230     8A    -10.318057     9A    -10.304119
      10A    -10.303482    11A    -10.302831    12A    -10.301472
      13A    -10.300623    14A    -10.295984    15A    -10.295672
      16A    -10.293677    17A    -10.293326    18A    -10.291126
      19A    -10.287520    20A    -10.280950    21A     -1.126740
      22A     -1.067950    23A     -1.050944    24A     -0.978570
      25A     -0.962802    26A     -0.909386    27A     -0.872952
      28A     -0.862375    29A     -0.856173    30A     -0.854133
      31A     -0.814430    32A     -0.768920    33A     -0.726591
      34A     -0.722199    35A     -0.712337    36A     -0.694334
      37A     -0.681837    38A     -0.664127    39A     -0.636585
      40A     -0.616188    41A     -0.600759    42A     -0.584358
      43A     -0.581700    44A     -0.560518    45A     -0.554417
      46A     -0.538620    47A     -0.534359    48A     -0.527474
      49A     -0.523360    50A     -0.517133    51A     -0.512343
      52A     -0.511352    53A     -0.499203    54A     -0.484321
      55A     -0.477495    56A     -0.475868    57A     -0.450753
      58A     -0.449560    59A     -0.443439    60A     -0.437323
      61A     -0.430467    62A     -0.407834    63A     -0.366922
      64A     -0.348039    65A     -0.342843    66A     -0.337458
      67A     -0.331716    68A     -0.308167    69A     -0.260625

  @DF-RKS Final Energy:  -840.86612944979390

   => Energetics <=

    Nuclear Repulsion Energy =           1426.0390128507378904
    One-Electron Energy =               -3970.8237503353102511
    Two-Electron Energy =                1786.6306393332727112
    DFT Exchange-Correlation Energy =     -82.6877078537130927
    Empirical Dispersion Energy =          -0.0243234447810658
    VV10 Nonlocal Energy =                  0.0000000000000000
    Total Energy =                       -840.8661294497937888

  Dipole Moment: [D]
     X:    -1.4059      Y:     1.3857      Z:    -2.4829     Total:     3.1719

*** Psi4 exiting successfully. Buy a developer a beer!
