                               Psi4 1.5 release

  ==> Input File <==

--------------------------------------------------------------------------
molecule {
0 1
 C   -0.526455   -0.139379    0.209522
 N    0.739622   -0.659670    0.449192
 C    2.057434   -0.278000    0.090954
 C    3.047906   -1.279737   -0.077747
 H    0.716997   -1.397377    1.171359
 C    2.463968    1.082112    0.135127
 C   -1.513277   -0.660857    1.042121
 N   -2.955726   -2.177945    1.897868
 C   -2.247759   -0.047606    2.121003
 C   -1.986465   -2.053059    0.929869
 C   -3.108767   -0.982801    2.606556
 C   -0.918500    0.717597   -0.975990
 C    0.012418    1.277805   -1.899557
 C   -2.298693    1.026710   -1.184702
 C   -0.408389    2.109522   -2.947098
 C   -2.712551    1.854505   -2.236766
 C   -1.770989    2.405704   -3.122538
 C    4.385406   -0.923567   -0.299476
 C    3.803383    1.428563   -0.089343
 C    4.772976    0.431478   -0.316808
 H    2.766398   -2.335129   -0.052769
 H    1.733805    1.866873    0.344963
 H   -3.456399   -3.043054    2.040233
 O   -1.596188   -2.962900    0.169523
 H    1.072195    1.056056   -1.833775
 H   -3.062695    0.623696   -0.518582
 H    0.331117    2.527080   -3.633178
 H   -3.773994    2.074117   -2.365416
 H   -2.094595    3.053248   -3.939297
 H    5.127540   -1.707737   -0.458222
 H    4.090520    2.481371   -0.082459
 H   -2.143431    0.966884    2.479024
 H   -3.827916   -0.914367    3.410941
 H    5.814263    0.705204   -0.495648
}
set optking {
  frozen_dihedral = ("
    2 1 12 13
    7 1 2 3
    1 2 3 4
  ")
}
set {
  geom_maxiter 400
  g_convergence GAU_LOOSE
  dynamic_level 1
}
memory 8.166666666666666GB
set_num_threads(2)
psi4_io.set_default_path("/scratch/bdw2292/Psi4-1_16_Index_0-farH_in17")
for _ in range(1):
  try:
    set opt_coordinates both
    optimize('wb97x-d/6-311G')
    break
  except OptimizationConvergenceError:
    break
  else:
    try:
      set opt_coordinates cartesian
      optimize('wb97x-d/6-311G')
      break
    except OptimizationConvergenceError:
      pass
clean()
--------------------------------------------------------------------------

    Molecular point group: c1
  Charge       = 0
  Multiplicity = 1
  Basis Set: 6-311G
    Blend: 6-311G
  Basis Set: (6-311G AUX)
    Blend: CC-PVTZ-JKFIT
  @DF-RKS Final Energy:  -840.57076327048560
    Total Energy =                       -840.5707632704854859
    Molecular point group: c1
  Basis Set: 6-311G
    Blend: 6-311G
  Basis Set: (6-311G AUX)
    Blend: CC-PVTZ-JKFIT
  Basis Set: 6-311G
    Blend: 6-311G
  Basis Set: (6-311G AUX)
    Blend: CC-PVTZ-JKFIT
  @DF-RKS Final Energy:  -840.58709541769986
    Total Energy =                       -840.5870954176998566
  Basis Set: 6-311G
    Blend: 6-311G
  Basis Set: (6-311G AUX)
    Blend: CC-PVTZ-JKFIT
  Basis Set: 6-311G
    Blend: 6-311G
  @DF-RKS Final Energy:  -840.59787434180816
    Total Energy =                       -840.5978743418081649
  @DF-RKS Final Energy:  -840.60714459015821
    Total Energy =                       -840.6071445901582138
  @DF-RKS Final Energy:  -840.59820957352656
    Total Energy =                       -840.5982095735265602
  @DF-RKS Final Energy:  -840.60714459309020
    Total Energy =                       -840.6071445930901973
  @DF-RKS Final Energy:  -840.61209941848949
    Total Energy =                       -840.6120994184894926
  @DF-RKS Final Energy:  -840.61608674734282
    Total Energy =                       -840.6160867473428198
  @DF-RKS Final Energy:  -840.61968562393508
    Total Energy =                       -840.6196856239350836
  @DF-RKS Final Energy:  -840.62292786844444
    Total Energy =                       -840.6229278684443216
  @DF-RKS Final Energy:  -840.62587997778542
    Total Energy =                       -840.6258799777855302
  @DF-RKS Final Energy:  -840.62813978512520
    Total Energy =                       -840.6281397851251995
  @DF-RKS Final Energy:  -840.62967625755971
    Total Energy =                       -840.6296762575595949
  @DF-RKS Final Energy:  -840.63033531864380
    Total Energy =                       -840.6303353186439153
  @DF-RKS Final Energy:  -840.63040128552632
    Total Energy =                       -840.6304012855263181
  Basis Set: (6-311G AUX)
    Blend: CC-PVTZ-JKFIT
  Basis Set: 6-311G
    Blend: 6-311G
  Basis Set: (6-311G AUX)
    Blend: CC-PVTZ-JKFIT
  @DF-RKS Final Energy:  -840.63040453741951
    Total Energy =                       -840.6304045374193947
  Basis Set: 6-311G
    Blend: 6-311G
  Basis Set: (6-311G AUX)
    Blend: CC-PVTZ-JKFIT
  Charge       = 0
  Multiplicity = 1
  Basis Set: 6-311G
    Blend: 6-311G
  Basis Set: (6-311G AUX)
    Blend: CC-PVTZ-JKFIT

    Orbital Energies [Eh]
    ---------------------

    Doubly Occupied:

       1A    -19.208531     2A    -14.468955     3A    -14.465881
       4A    -10.387584     5A    -10.380076     6A    -10.348464
       7A    -10.326724     8A    -10.319794     9A    -10.304577
      10A    -10.303061    11A    -10.302384    12A    -10.301602
      13A    -10.301467    14A    -10.301045    15A    -10.300059
      16A    -10.299523    17A    -10.297397    18A    -10.295987
      19A    -10.292919    20A    -10.283615    21A     -1.140704
      22A     -1.070466    23A     -1.058912    24A     -0.982932
      25A     -0.970428    26A     -0.912724    27A     -0.876731
      28A     -0.865415    29A     -0.861738    30A     -0.860567
      31A     -0.818677    32A     -0.773028    33A     -0.731243
      34A     -0.728451    35A     -0.715410    36A     -0.695212
      37A     -0.687176    38A     -0.666640    39A     -0.643846
      40A     -0.616680    41A     -0.602745    42A     -0.588212
      43A     -0.585164    44A     -0.563504    45A     -0.554625
      46A     -0.543176    47A     -0.540180    48A     -0.530562
      49A     -0.528800    50A     -0.521954    51A     -0.517976
      52A     -0.506921    53A     -0.499585    54A     -0.489007
      55A     -0.478670    56A     -0.475778    57A     -0.454088
      58A     -0.451109    59A     -0.442577    60A     -0.435491
      61A     -0.431909    62A     -0.405342    63A     -0.366691
      64A     -0.344829    65A     -0.339421    66A     -0.337542
      67A     -0.333458    68A     -0.307226    69A     -0.255592

  @DF-RKS Final Energy:  -840.63041677083481

   => Energetics <=

    Nuclear Repulsion Energy =           1413.9761748462017295
    One-Electron Energy =               -3945.8324416044997633
    Two-Electron Energy =                1773.9222622629511079
    DFT Exchange-Correlation Energy =     -82.6729646685720638
    Empirical Dispersion Energy =          -0.0234476069156934
    VV10 Nonlocal Energy =                  0.0000000000000000
    Total Energy =                       -840.6304167708349269

  Dipole Moment: [D]
     X:    -1.0486      Y:     2.3123      Z:    -1.2214     Total:     2.8175

    Molecular point group: c1
  Basis Set: 6-311G
    Blend: 6-311G
  Basis Set: (6-311G AUX)
    Blend: CC-PVTZ-JKFIT

  -Total Gradient:
     Atom            X                  Y                   Z
    ------   -----------------  -----------------  -----------------
       1        0.001966461104     0.004878310906     0.006530883370
       2        0.000644043022     0.000386582697     0.003656443365
       3       -0.003449188034    -0.001684947795    -0.011969059900
       4        0.002108916184    -0.000022469347     0.006079115739
       5       -0.000340696789     0.000029564015    -0.000030942890
       6       -0.000099082632    -0.000007955487    -0.000024505434
       7       -0.001520972666    -0.004979061630    -0.005037997461
       8        0.000108484894     0.000128938355     0.000168018913
       9        0.000016420435    -0.000066028377    -0.000017285844
      10       -0.000115794291    -0.000481350073    -0.000604251110
      11        0.000124562385     0.000053239738     0.000060103932
      12        0.000869602145     0.002950790845     0.002486984061
      13       -0.000206000439    -0.001436592133    -0.001330649871
      14       -0.000041893883     0.000018954066    -0.000129610433
      15        0.000026665014    -0.000015604872     0.000069490169
      16       -0.000034720363    -0.000014335136     0.000036667517
      17       -0.000025741607     0.000011902485     0.000002764359
      18        0.000016518184    -0.000053253479    -0.000025963138
      19        0.000027103345     0.000028672524    -0.000002011908
      20        0.000029361316     0.000018551382     0.000045295773
      21       -0.000021993618    -0.000032909402    -0.000001888175
      22        0.000042454977     0.000001838193     0.000063445134
      23       -0.000043831285     0.000061118226    -0.000064723320
      24        0.000024897767     0.000248562991     0.000290907271
      25       -0.000139396009     0.000016013751    -0.000102457983
      26       -0.000045404899    -0.000121677409     0.000080490515
      27        0.000008108311     0.000016677811    -0.000010215499
      28       -0.000019904615     0.000003164674     0.000007126787
      29       -0.000008843494     0.000001273353     0.000030251249
      30        0.000019768140    -0.000009426504     0.000001387290
      31        0.000012062442     0.000029057109     0.000010994554
      32        0.000067357457     0.000000040317    -0.000004631134
      33        0.000006262572    -0.000060308158    -0.000034169384
      34        0.000023348256     0.000011214212    -0.000024743400

  **** Optimization is complete! (in 12 steps) ****
    Final optimized geometry and variables:
    Molecular point group: c1

    Geometry (in Angstrom), charge = 0, multiplicity = 1:

    C           -0.589358532404    -0.075948701892     0.282809830034
    N            0.650175696639    -0.647569694823     0.378072395281
    C            1.955098123331    -0.305492295222    -0.052415863896
    C            2.827945336144    -1.357876340334    -0.347235484353
    H            0.641409359941    -1.479848260088     0.988206843370
    C            2.472834742780     0.991489620335     0.065324504829
    C           -1.544519718887    -0.614242628703     1.156525815207
    N           -2.389444191532    -2.044560455357     2.710242344046
    C           -2.875487919609    -0.174741187826     1.570922717194
    C           -1.261795425013    -1.803292947752     1.961617106689
    C           -3.342538881540    -1.043698238267     2.496478979388
    C           -0.950776728489     0.880046497665    -0.817042194301
    C           -0.016844133820     1.431661379625    -1.712481621747
    C           -2.308483195569     1.107203227535    -1.118247311866
    C           -0.409485958892     2.246975026865    -2.769571939599
    C           -2.702266073622     1.925825189120    -2.169504907522
    C           -1.753377141227     2.521681315352    -2.993886296838
    C            4.169239408761    -1.105761203515    -0.619151707553
    C            3.810512215456     1.240264982576    -0.222552102803
    C            4.664283976126     0.195317388702    -0.574633830101
    H            2.439879686515    -2.367127447486    -0.375809065846
    H            1.831790894429     1.794045780141     0.402277545681
    H           -2.461949808051    -2.816240973873     3.343882919449
    O           -0.214701311798    -2.520981281283     2.000436488101
    H            1.031595603186     1.229857642212    -1.615853235980
    H           -3.076140640639     0.594031432805    -0.570811619837
    H            0.347340330560     2.655446117857    -3.425111057608
    H           -3.757207869887     2.072421883766    -2.356708789888
    H           -2.056590230089     3.159747625881    -3.812384469813
    H            4.827397202748    -1.929724670092    -0.858263740054
    H            4.192735670325     2.248782037099    -0.141332879482
    H           -3.373449651789     0.737734544465     1.304359454448
    H           -4.259078868243    -1.023155108045     3.057305630245
    H            5.705829118407     0.390861328747    -0.787998875893

*** Psi4 exiting successfully. Buy a developer a beer!
