                               Psi4 1.5 release

  ==> Input File <==

--------------------------------------------------------------------------
molecule {
0 1
 C   -0.546650   -0.160206    0.348469
 N    0.617440   -0.870887    0.312231
 C    1.878656   -0.586085   -0.256390
 C    2.862202   -1.572321   -0.083171
 H    0.615199   -1.653865    0.972993
 C    2.233122    0.618587   -0.875937
 C   -1.528388   -0.546916    1.235246
 N   -2.526341   -1.710176    2.898193
 C   -2.890232   -0.059658    1.409818
 C   -1.340128   -1.624701    2.203834
 C   -3.453149   -0.769730    2.412825
 C   -0.826827    0.895884   -0.657013
 C   -1.245423    2.166843   -0.256469
 C   -0.746497    0.594552   -2.021697
 C   -1.553682    3.135664   -1.209303
 C   -1.062617    1.560391   -2.969888
 C   -1.462013    2.834727   -2.566003
 C    4.150425   -1.382354   -0.564492
 C    3.528080    0.795830   -1.358495
 C    4.491641   -0.198047   -1.215981
 H    2.603790   -2.491541    0.426992
 H    1.524868    1.423104   -0.974243
 H   -2.685283   -2.378593    3.626617
 O   -0.328609   -2.362656    2.380157
 H   -1.312273    2.395002    0.798545
 H   -0.430046   -0.392524   -2.330271
 H   -1.865099    4.121244   -0.891526
 H   -0.999120    1.320723   -4.022361
 H   -1.703508    3.585952   -3.305444
 H    4.889451   -2.159450   -0.424714
 H    3.781978    1.731185   -1.838909
 H   -3.365859    0.715315    0.836114
 H   -4.440026   -0.706912    2.834360
 H    5.493753   -0.048615   -1.592594
}
memory 8.166666666666666GB
set_num_threads(2)
psi4_io.set_default_path("/scratch/bdw2292/Psi4-1_16_Index_0-farH_in17")
set freeze_core True
E, wfn = energy('wb97x-d/6-311+G*',return_wfn=True)
oeprop(wfn,"WIBERG_LOWDIN_INDICES")
clean()
--------------------------------------------------------------------------

    Molecular point group: c1

    Geometry (in Angstrom), charge = 0, multiplicity = 1:

       Center              X                  Y                   Z               Mass
    ------------   -----------------  -----------------  -----------------  -----------------
         C           -0.546650014994    -0.160205925612     0.348469145308    12.000000000000
         N            0.617439985006    -0.870886925612     0.312231145308    14.003074004430
         C            1.878655985006    -0.586084925612    -0.256389854692    12.000000000000
         C            2.862201985006    -1.572320925612    -0.083170854692    12.000000000000
         H            0.615198985006    -1.653864925612     0.972993145308     1.007825032230
         C            2.233121985006     0.618587074388    -0.875936854692    12.000000000000
         C           -1.528388014994    -0.546915925612     1.235246145308    12.000000000000
         N           -2.526341014994    -1.710175925612     2.898193145308    14.003074004430
         C           -2.890232014994    -0.059657925612     1.409818145308    12.000000000000
         C           -1.340128014994    -1.624700925612     2.203834145308    12.000000000000
         C           -3.453149014994    -0.769729925612     2.412825145308    12.000000000000
         C           -0.826827014994     0.895884074388    -0.657012854692    12.000000000000
         C           -1.245423014994     2.166843074388    -0.256468854692    12.000000000000
         C           -0.746497014994     0.594552074388    -2.021696854692    12.000000000000
         C           -1.553682014994     3.135664074388    -1.209302854692    12.000000000000
         C           -1.062617014994     1.560391074388    -2.969887854692    12.000000000000
         C           -1.462013014994     2.834727074388    -2.566002854692    12.000000000000
         C            4.150424985006    -1.382353925612    -0.564491854692    12.000000000000
         C            3.528079985006     0.795830074388    -1.358494854692    12.000000000000
         C            4.491640985006    -0.198046925612    -1.215980854692    12.000000000000
         H            2.603789985006    -2.491540925612     0.426992145308     1.007825032230
         H            1.524867985006     1.423104074388    -0.974242854692     1.007825032230
         H           -2.685283014994    -2.378592925612     3.626617145308     1.007825032230
         O           -0.328609014994    -2.362655925612     2.380157145308    15.994914619570
         H           -1.312273014994     2.395002074388     0.798545145308     1.007825032230
         H           -0.430046014994    -0.392523925612    -2.330270854692     1.007825032230
         H           -1.865099014994     4.121244074388    -0.891525854692     1.007825032230
         H           -0.999120014994     1.320723074388    -4.022360854692     1.007825032230
         H           -1.703508014994     3.585952074388    -3.305443854692     1.007825032230
         H            4.889450985006    -2.159449925612    -0.424713854692     1.007825032230
         H            3.781977985006     1.731185074388    -1.838908854692     1.007825032230
         H           -3.365859014994     0.715315074388     0.836114145308     1.007825032230
         H           -4.440026014994    -0.706911925612     2.834360145308     1.007825032230
         H            5.493752985006    -0.048614925612    -1.592593854692     1.007825032230

  Charge       = 0
  Multiplicity = 1
  Basis Set: 6-311+G*
    Blend: 6-311+G*
  Basis Set: (6-311+G* AUX)
    Blend: HEAVY-AUG-CC-PVTZ-JKFIT

    Orbital Energies [Eh]
    ---------------------

    Doubly Occupied:

       1A    -19.209110     2A    -14.473335     3A    -14.467845
       4A    -10.381720     5A    -10.366970     6A    -10.342773
       7A    -10.319581     8A    -10.318801     9A    -10.307106
      10A    -10.306333    11A    -10.306103    12A    -10.305336
      13A    -10.304682    14A    -10.292613    15A    -10.292599
      16A    -10.290680    17A    -10.289359    18A    -10.287122
      19A    -10.286128    20A    -10.281385    21A     -1.126839
      22A     -1.071640    23A     -1.051415    24A     -0.982406
      25A     -0.960971    26A     -0.911934    27A     -0.875058
      28A     -0.865890    29A     -0.853912    30A     -0.853179
      31A     -0.814445    32A     -0.770942    33A     -0.727412
      34A     -0.724450    35A     -0.712750    36A     -0.696400
      37A     -0.681084    38A     -0.663553    39A     -0.637843
      40A     -0.616587    41A     -0.601144    42A     -0.583706
      43A     -0.582864    44A     -0.563567    45A     -0.554795
      46A     -0.535342    47A     -0.531601    48A     -0.528894
      49A     -0.523399    50A     -0.515601    51A     -0.514684
      52A     -0.510883    53A     -0.499647    54A     -0.493718
      55A     -0.480738    56A     -0.475353    57A     -0.450347
      58A     -0.449179    59A     -0.445081    60A     -0.436371
      61A     -0.431060    62A     -0.408231    63A     -0.368897
      64A     -0.349898    65A     -0.342832    66A     -0.338577
      67A     -0.332588    68A     -0.307342    69A     -0.259157

  @DF-RKS Final Energy:  -840.87035763441475

   => Energetics <=

    Nuclear Repulsion Energy =           1421.3432756772760968
    One-Electron Energy =               -3961.3445228370301265
    Two-Electron Energy =                1781.8417732568473184
    DFT Exchange-Correlation Energy =     -82.6866721884034916
    Empirical Dispersion Energy =          -0.0242115431048019
    VV10 Nonlocal Energy =                  0.0000000000000000
    Total Energy =                       -840.8703576344147450

  Dipole Moment: [D]
     X:    -1.6541      Y:     2.3939      Z:    -1.6287     Total:     3.3346

*** Psi4 exiting successfully. Buy a developer a beer!
