                               Psi4 1.5 release

  ==> Input File <==

--------------------------------------------------------------------------
molecule {
0 1
 C   -0.617258   -0.243913    0.205351
 N    0.526152   -1.020703    0.209542
 C    1.759167   -0.981749   -0.496156
 C    2.416150   -2.224369   -0.717533
 H    0.512218   -1.701569    0.983723
 C    2.389398    0.202805   -0.951433
 C   -1.491283   -0.424304    1.266477
 N   -2.387171   -0.100908    3.313978
 C   -2.602741   -1.326654    1.429967
 C   -1.374033    0.362951    2.506597
 C   -3.119511   -1.103211    2.668815
 C   -0.801912    0.948647   -0.655282
 C   -1.690757    0.895085   -1.755620
 C   -0.232003    2.194595   -0.291431
 C   -1.929193    2.040029   -2.528114
 C   -0.471384    3.336840   -1.066433
 C   -1.313302    3.264612   -2.195335
 C    3.645561   -2.273339   -1.388386
 C    3.618902    0.143263   -1.623988
 C    4.256449   -1.092015   -1.849918
 H    1.961307   -3.155197   -0.369450
 H    1.940271    1.177417   -0.787640
 H   -2.539417    0.267310    4.241617
 O   -0.547536    1.251140    2.811287
 H   -2.181730   -0.048117   -2.002555
 H    0.385519    2.255575    0.607699
 H   -2.594342    1.980838   -3.391336
 H   -0.004461    4.284348   -0.792161
 H   -1.494129    4.153448   -2.802532
 H    4.127300   -3.239071   -1.550816
 H    4.082008    1.068433   -1.971467
 H   -2.959071   -2.053292    0.713431
 H   -3.948957   -1.580627    3.172001
 H    5.212947   -1.132954   -2.374006
}
set optking {
  frozen_dihedral = ("
    2 1 12 13
    7 1 2 3
    1 2 3 4
  ")
}
set {
  geom_maxiter 400
  g_convergence GAU_LOOSE
  dynamic_level 1
}
memory 8.166666666666666GB
set_num_threads(2)
psi4_io.set_default_path("/scratch/bdw2292/Psi4-1_16_Index_0-farH_in17")
for _ in range(1):
  try:
    set opt_coordinates both
    optimize('wb97x-d/6-311G')
    break
  except OptimizationConvergenceError:
    break
  else:
    try:
      set opt_coordinates cartesian
      optimize('wb97x-d/6-311G')
      break
    except OptimizationConvergenceError:
      pass
clean()
--------------------------------------------------------------------------

    Molecular point group: c1
  Charge       = 0
  Multiplicity = 1
  Basis Set: 6-311G
    Blend: 6-311G
  Basis Set: (6-311G AUX)
    Blend: CC-PVTZ-JKFIT
  @DF-RKS Final Energy:  -840.56049223796504
    Total Energy =                       -840.5604922379651498
    Molecular point group: c1
  Basis Set: 6-311G
    Blend: 6-311G
  Basis Set: (6-311G AUX)
    Blend: CC-PVTZ-JKFIT
  Basis Set: 6-311G
    Blend: 6-311G
  Basis Set: (6-311G AUX)
    Blend: CC-PVTZ-JKFIT
  @DF-RKS Final Energy:  -840.57719763497096
    Total Energy =                       -840.5771976349709576
  Basis Set: 6-311G
    Blend: 6-311G
  Basis Set: (6-311G AUX)
    Blend: CC-PVTZ-JKFIT
  Basis Set: 6-311G
    Blend: 6-311G
  @DF-RKS Final Energy:  -840.58296406309387
    Total Energy =                       -840.5829640630938684
  @DF-RKS Final Energy:  -840.59598142159427
    Total Energy =                       -840.5959814215941606
  @DF-RKS Final Energy:  -840.61104100065268
    Total Energy =                       -840.6110410006526763
  @DF-RKS Final Energy:  -840.61585623837118
    Total Energy =                       -840.6158562383710660
  @DF-RKS Final Energy:  -840.62423474351192
    Total Energy =                       -840.6242347435120337
  @DF-RKS Final Energy:  -840.62698714782130
    Total Energy =                       -840.6269871478212963
  @DF-RKS Final Energy:  -840.62747469604960
    Total Energy =                       -840.6274746960494895
  @DF-RKS Final Energy:  -840.62766937914034
    Total Energy =                       -840.6276693791404568
  @DF-RKS Final Energy:  -840.62790529737913
    Total Energy =                       -840.6279052973791295
  @DF-RKS Final Energy:  -840.62804603166978
    Total Energy =                       -840.6280460316697827
  @DF-RKS Final Energy:  -840.62812449886462
    Total Energy =                       -840.6281244988645085
  @DF-RKS Final Energy:  -840.62815101647618
    Total Energy =                       -840.6281510164760675
  @DF-RKS Final Energy:  -840.62815812909730
    Total Energy =                       -840.6281581290973008
  Basis Set: (6-311G AUX)
    Blend: CC-PVTZ-JKFIT
  Basis Set: 6-311G
    Blend: 6-311G
  Basis Set: (6-311G AUX)
    Blend: CC-PVTZ-JKFIT
  @DF-RKS Final Energy:  -840.62816087349472
    Total Energy =                       -840.6281608734946076
  Basis Set: 6-311G
    Blend: 6-311G
  Basis Set: (6-311G AUX)
    Blend: CC-PVTZ-JKFIT
  Charge       = 0
  Multiplicity = 1
  Basis Set: 6-311G
    Blend: 6-311G
  Basis Set: (6-311G AUX)
    Blend: CC-PVTZ-JKFIT

    Orbital Energies [Eh]
    ---------------------

    Doubly Occupied:

       1A    -19.196477     2A    -14.483845     3A    -14.461706
       4A    -10.386484     5A    -10.368863     6A    -10.353409
       7A    -10.326842     8A    -10.307279     9A    -10.301855
      10A    -10.301258    11A    -10.299684    12A    -10.296688
      13A    -10.294996    14A    -10.294066    15A    -10.293446
      16A    -10.290845    17A    -10.289884    18A    -10.289269
      19A    -10.286992    20A    -10.285149    21A     -1.133456
      22A     -1.079507    23A     -1.053595    24A     -0.977151
      25A     -0.965325    26A     -0.913001    27A     -0.872057
      28A     -0.863185    29A     -0.855637    30A     -0.851789
      31A     -0.819607    32A     -0.771724    33A     -0.730072
      34A     -0.722222    35A     -0.705638    36A     -0.697261
      37A     -0.684212    38A     -0.665044    39A     -0.644524
      40A     -0.617572    41A     -0.601085    42A     -0.593344
      43A     -0.568310    44A     -0.555773    45A     -0.549962
      46A     -0.546873    47A     -0.535821    48A     -0.523653
      49A     -0.521994    50A     -0.520099    51A     -0.518887
      52A     -0.511409    53A     -0.491736    54A     -0.490139
      55A     -0.477325    56A     -0.458929    57A     -0.452536
      58A     -0.447833    59A     -0.435426    60A     -0.429987
      61A     -0.425434    62A     -0.402946    63A     -0.361437
      64A     -0.343196    65A     -0.336454    66A     -0.327325
      67A     -0.312612    68A     -0.311748    69A     -0.255702

  @DF-RKS Final Energy:  -840.62816129755140

   => Energetics <=

    Nuclear Repulsion Energy =           1419.3289321803490566
    One-Electron Energy =               -3957.0551220298411863
    Two-Electron Energy =                1779.7873045749140601
    DFT Exchange-Correlation Energy =     -82.6651921954868385
    Empirical Dispersion Energy =          -0.0240838274864485
    VV10 Nonlocal Energy =                  0.0000000000000000
    Total Energy =                       -840.6281612975514008

  Dipole Moment: [D]
     X:     2.1692      Y:    -2.6183      Z:    -0.4248     Total:     3.4266

    Molecular point group: c1
  Basis Set: 6-311G
    Blend: 6-311G
  Basis Set: (6-311G AUX)
    Blend: CC-PVTZ-JKFIT

  -Total Gradient:
     Atom            X                  Y                   Z
    ------   -----------------  -----------------  -----------------
       1       -0.013738495628    -0.007924768743     0.001068122847
       2        0.000539550021     0.001512384389    -0.001302416125
       3        0.005019067418     0.002764994017     0.002121561661
       4       -0.000038148092     0.000000369190     0.000019004991
       5        0.000048470472     0.000018845801    -0.000018807712
       6       -0.000015970599     0.000064371661     0.000070410306
       7        0.004115643650     0.003204825082     0.000627724928
       8        0.000014775436     0.000073416737    -0.000069836312
       9        0.000029555876     0.000059638810    -0.000021063727
      10       -0.000063361034    -0.000056132598     0.000106589816
      11       -0.000049321135    -0.000118447307     0.000025030008
      12        0.005522089248    -0.003616582612    -0.010215458692
      13       -0.001459487464     0.003927264917     0.007781181182
      14        0.000120601642     0.000060509596    -0.000120559483
      15       -0.000087491361     0.000096219909    -0.000024052875
      16       -0.000011915143    -0.000085961539     0.000074666273
      17       -0.000043614748    -0.000019376809    -0.000082199170
      18        0.000017344663    -0.000015708814    -0.000028995018
      19       -0.000026872605    -0.000001147758    -0.000026688885
      20        0.000023116144    -0.000019873374     0.000003721906
      21        0.000001248594    -0.000004371661    -0.000001114284
      22       -0.000018730076     0.000005758341    -0.000010092371
      23       -0.000003762890    -0.000002820507     0.000022845857
      24       -0.000042177282    -0.000035635213    -0.000037840667
      25       -0.000007136987    -0.000036931695    -0.000095997567
      26       -0.000028870842    -0.000022972019     0.000036118565
      27       -0.000014249059    -0.000022759147    -0.000022616395
      28       -0.000007352598     0.000015923540     0.000015149270
      29       -0.000023499577    -0.000005867537     0.000003283891
      30        0.000000580649    -0.000007094719     0.000005081284
      31        0.000001790120     0.000001797957    -0.000000799413
      32       -0.000041239614     0.000006121680     0.000011249962
      33       -0.000047587104     0.000026062542     0.000021264332
      34        0.000014026789     0.000008194486    -0.000001745280

  **** Optimization is complete! (in 17 steps) ****
    Final optimized geometry and variables:
    Molecular point group: c1

    Geometry (in Angstrom), charge = 0, multiplicity = 1:

    C           -0.100806526050    -0.371223340143     0.579030969673
    N            0.706818744326    -1.268764441365    -0.086884088347
    C            1.290197194450    -1.282693221372    -1.378597019009
    C            1.502384302073    -2.548192658599    -1.948320463412
    H            0.938233578261    -2.086593547834     0.452075605239
    C            1.702006507946    -0.150181260753    -2.084567816488
    C           -0.258465536634    -0.499694198981     1.933087020621
    N           -0.938209915072    -0.152446054987     4.075387853423
    C            0.352465825688    -1.493721359252     2.819045240432
    C           -1.101564771169     0.364704089253     2.791105672961
    C           -0.073326940186    -1.249181915062     4.075866539775
    C           -0.692535719958     0.793106755961    -0.144936176171
    C           -2.058472616259     0.804950407218    -0.427500544971
    C            0.040301327605     1.973526376564    -0.298650182927
    C           -2.657988416987     1.939707413011    -0.964051215813
    C           -0.557985182169     3.111293999366    -0.827784730774
    C           -1.907124797170     3.091965752746    -1.175089806300
    C            2.111058472742    -2.677950822242    -3.189534498599
    C            2.292032314641    -0.288489543426    -3.339442100369
    C            2.504776392682    -1.544280280017    -3.899006300272
    H            1.170681290215    -3.431222068964    -1.415942716626
    H            1.571049291251     0.833131189285    -1.673540215930
    H           -1.396459410224     0.245385508273     4.871755412420
    O           -1.820890408162     1.345967939976     2.527466626960
    H           -2.650857137335    -0.076210410967    -0.223582014363
    H            1.069626853410     2.011471078394     0.033710707711
    H           -3.715156017856     1.931400371150    -1.190330406441
    H            0.020963443092     4.017316343206    -0.944492362806
    H           -2.375322522038     3.978708239437    -1.580223261607
    H            2.265139049084    -3.663638837810    -3.606970309875
    H            2.596990790338     0.601414997062    -3.872959028312
    H            1.054173251038    -2.266251459314     2.553207445745
    H            0.173738488829    -1.755792710499     4.992027807531
    H            2.970054660897    -1.640019952711    -4.869850043415

*** Psi4 exiting successfully. Buy a developer a beer!
