                               Psi4 1.5 release

  ==> Input File <==

--------------------------------------------------------------------------
molecule {
0 1
 C   -0.536840   -0.289000    0.382103
 N    0.681078   -0.866807    0.577080
 C    1.906603   -0.531614   -0.082991
 C    2.296431   -1.181412   -1.252671
 H    0.736496   -1.440090    1.424649
 C    2.709739    0.476214    0.451170
 C   -1.536913   -0.521697    1.306354
 N   -2.514291   -1.298198    3.190410
 C   -2.939367   -0.126474    1.315947
 C   -1.308804   -1.292985    2.521899
 C   -3.491249   -0.603951    2.454636
 C   -0.774727    0.585278   -0.796541
 C   -1.351065    1.846558   -0.601421
 C   -0.526559    0.150984   -2.102997
 C   -1.629177    2.673241   -1.685402
 C   -0.811797    0.975634   -3.186863
 C   -1.356576    2.241148   -2.981442
 C    3.484776   -0.825431   -1.885134
 C    3.898638    0.830322   -0.181148
 C    4.285605    0.183114   -1.352928
 H    1.682107   -1.980064   -1.643285
 H    2.391336    0.974455    1.356314
 H   -2.649207   -1.764187    4.066541
 O   -0.246914   -1.858794    2.917286
 H   -1.558655    2.181030    0.405464
 H   -0.132788   -0.838274   -2.274665
 H   -2.058577    3.651334   -1.517304
 H   -0.614723    0.626514   -4.191167
 H   -1.573232    2.882230   -3.824983
 H    3.784800   -1.335404   -2.790266
 H    4.517019    1.612707    0.236821
 H   -3.449973    0.426008    0.547278
 H   -4.499671   -0.526768    2.819077
 H    5.206502    0.460751   -1.846895
}
memory 8.166666666666666GB
set_num_threads(2)
psi4_io.set_default_path("/scratch/bdw2292/Psi4-1_16_Index_0-farH_in17")
set freeze_core True
E, wfn = energy('wb97x-d/6-311+G*',return_wfn=True)
oeprop(wfn,"WIBERG_LOWDIN_INDICES")
clean()
--------------------------------------------------------------------------

    Molecular point group: c1

    Geometry (in Angstrom), charge = 0, multiplicity = 1:

       Center              X                  Y                   Z               Mass
    ------------   -----------------  -----------------  -----------------  -----------------
         C           -0.536840015738    -0.288999972310     0.382102928105    12.000000000000
         N            0.681077984262    -0.866806972310     0.577079928105    14.003074004430
         C            1.906602984262    -0.531613972310    -0.082991071895    12.000000000000
         C            2.296430984262    -1.181411972310    -1.252671071895    12.000000000000
         H            0.736495984262    -1.440089972310     1.424648928105     1.007825032230
         C            2.709738984262     0.476214027690     0.451169928105    12.000000000000
         C           -1.536913015738    -0.521696972310     1.306353928105    12.000000000000
         N           -2.514291015738    -1.298197972310     3.190409928105    14.003074004430
         C           -2.939367015738    -0.126473972310     1.315946928105    12.000000000000
         C           -1.308804015738    -1.292984972310     2.521898928105    12.000000000000
         C           -3.491249015738    -0.603950972310     2.454635928105    12.000000000000
         C           -0.774727015738     0.585278027690    -0.796541071895    12.000000000000
         C           -1.351065015738     1.846558027690    -0.601421071895    12.000000000000
         C           -0.526559015738     0.150984027690    -2.102997071895    12.000000000000
         C           -1.629177015738     2.673241027690    -1.685402071895    12.000000000000
         C           -0.811797015738     0.975634027690    -3.186863071895    12.000000000000
         C           -1.356576015738     2.241148027690    -2.981442071895    12.000000000000
         C            3.484775984262    -0.825430972310    -1.885134071895    12.000000000000
         C            3.898637984262     0.830322027690    -0.181148071895    12.000000000000
         C            4.285604984262     0.183114027690    -1.352928071895    12.000000000000
         H            1.682106984262    -1.980063972310    -1.643285071895     1.007825032230
         H            2.391335984262     0.974455027690     1.356313928105     1.007825032230
         H           -2.649207015738    -1.764186972310     4.066540928105     1.007825032230
         O           -0.246914015738    -1.858793972310     2.917285928105    15.994914619570
         H           -1.558655015738     2.181030027690     0.405463928105     1.007825032230
         H           -0.132788015738    -0.838273972310    -2.274665071895     1.007825032230
         H           -2.058577015738     3.651334027690    -1.517304071895     1.007825032230
         H           -0.614723015738     0.626514027690    -4.191167071895     1.007825032230
         H           -1.573232015738     2.882230027690    -3.824983071895     1.007825032230
         H            3.784799984262    -1.335403972310    -2.790266071895     1.007825032230
         H            4.517018984262     1.612707027690     0.236820928105     1.007825032230
         H           -3.449973015738     0.426008027690     0.547277928105     1.007825032230
         H           -4.499671015738    -0.526767972310     2.819076928105     1.007825032230
         H            5.206501984262     0.460751027690    -1.846895071895     1.007825032230

  Charge       = 0
  Multiplicity = 1
  Basis Set: 6-311+G*
    Blend: 6-311+G*
  Basis Set: (6-311+G* AUX)
    Blend: HEAVY-AUG-CC-PVTZ-JKFIT

    Orbital Energies [Eh]
    ---------------------

    Doubly Occupied:

       1A    -19.201334     2A    -14.462607     3A    -14.461713
       4A    -10.373849     5A    -10.363687     6A    -10.338230
       7A    -10.315194     8A    -10.312705     9A    -10.303599
      10A    -10.302050    11A    -10.301723    12A    -10.300625
      13A    -10.300349    14A    -10.300068    15A    -10.300058
      16A    -10.299607    17A    -10.298873    18A    -10.298357
      19A    -10.278162    20A    -10.276039    21A     -1.118861
      22A     -1.063448    23A     -1.044163    24A     -0.978144
      25A     -0.965573    26A     -0.906164    27A     -0.868997
      28A     -0.862301    29A     -0.860000    30A     -0.854255
      31A     -0.811247    32A     -0.764569    33A     -0.723326
      34A     -0.722170    35A     -0.714198    36A     -0.692876
      37A     -0.677860    38A     -0.666181    39A     -0.637865
      40A     -0.616622    41A     -0.596816    42A     -0.583302
      43A     -0.577321    44A     -0.563904    45A     -0.555692
      46A     -0.546088    47A     -0.538775    48A     -0.525060
      49A     -0.519452    50A     -0.517125    51A     -0.511258
      52A     -0.507117    53A     -0.493918    54A     -0.478707
      55A     -0.473079    56A     -0.466420    57A     -0.454233
      58A     -0.452792    59A     -0.443067    60A     -0.439171
      61A     -0.424193    62A     -0.401253    63A     -0.350544
      64A     -0.345611    65A     -0.342940    66A     -0.338490
      67A     -0.327976    68A     -0.324097    69A     -0.258923

  @DF-RKS Final Energy:  -840.86652147910138

   => Energetics <=

    Nuclear Repulsion Energy =           1425.8606282802154510
    One-Electron Energy =               -3970.6722222140815575
    Two-Electron Energy =                1786.6507412788528200
    DFT Exchange-Correlation Energy =     -82.6814527458543722
    Empirical Dispersion Energy =          -0.0242160782339068
    VV10 Nonlocal Energy =                  0.0000000000000000
    Total Energy =                       -840.8665214791013796

  Dipole Moment: [D]
     X:    -0.5217      Y:     2.2451      Z:    -2.7454     Total:     3.5846

*** Psi4 exiting successfully. Buy a developer a beer!
