                               Psi4 1.5 release

  ==> Input File <==

--------------------------------------------------------------------------
molecule {
0 1
 C   -0.512019   -0.070304    0.440310
 N    0.630224   -0.822161    0.458578
 C    1.872447   -0.558249   -0.168459
 C    2.653784   -1.649672   -0.558169
 H    0.643469   -1.533023    1.195960
 C    2.359322    0.739385   -0.352284
 C   -1.486507   -0.378938    1.377673
 N   -2.403048   -1.393235    3.190072
 C   -2.886742    0.014629    1.504707
 C   -1.232024   -1.324677    2.468111
 C   -3.395947   -0.601847    2.594646
 C   -0.779208    0.826910   -0.716904
 C   -1.671747    1.901080   -0.605937
 C   -0.317035    0.478701   -1.996593
 C   -2.041101    2.643504   -1.723746
 C   -0.690287    1.217187   -3.112768
 C   -1.551266    2.305240   -2.981854
 C    3.899082   -1.444304   -1.144512
 C    3.596441    0.936852   -0.956874
 C    4.371730   -0.150730   -1.356378
 H    2.273559   -2.650847   -0.405637
 H    1.773338    1.584794   -0.022332
 H   -2.510349   -1.979614    3.994599
 O   -0.188794   -1.993929    2.719313
 H   -2.025598    2.199870    0.369370
 H    0.321966   -0.381744   -2.123152
 H   -2.710011    3.485315   -1.608841
 H   -0.317172    0.934034   -4.087259
 H   -1.840498    2.878845   -3.851727
 H    4.496268   -2.295785   -1.440736
 H    3.962089    1.944320   -1.101311
 H   -3.447231    0.638091    0.834362
 H   -4.390336   -0.568060    3.001482
 H    5.335891    0.008288   -1.818635
}
memory 8.166666666666666GB
set_num_threads(2)
psi4_io.set_default_path("/scratch/bdw2292/Psi4-1_16_Index_0-farH_in17")
set freeze_core True
E, wfn = energy('wb97x-d/6-311+G*',return_wfn=True)
oeprop(wfn,"WIBERG_LOWDIN_INDICES")
clean()
--------------------------------------------------------------------------

    Molecular point group: c1

    Geometry (in Angstrom), charge = 0, multiplicity = 1:

       Center              X                  Y                   Z               Mass
    ------------   -----------------  -----------------  -----------------  -----------------
         C           -0.512018926018    -0.070303921694     0.440310033129    12.000000000000
         N            0.630224073982    -0.822160921694     0.458578033129    14.003074004430
         C            1.872447073982    -0.558248921694    -0.168458966871    12.000000000000
         C            2.653784073982    -1.649671921694    -0.558168966871    12.000000000000
         H            0.643469073982    -1.533022921694     1.195960033129     1.007825032230
         C            2.359322073982     0.739385078306    -0.352283966871    12.000000000000
         C           -1.486506926018    -0.378937921694     1.377673033129    12.000000000000
         N           -2.403047926018    -1.393234921694     3.190072033129    14.003074004430
         C           -2.886741926018     0.014629078306     1.504707033129    12.000000000000
         C           -1.232023926018    -1.324676921694     2.468111033129    12.000000000000
         C           -3.395946926018    -0.601846921694     2.594646033129    12.000000000000
         C           -0.779207926018     0.826910078306    -0.716903966871    12.000000000000
         C           -1.671746926018     1.901080078306    -0.605936966871    12.000000000000
         C           -0.317034926018     0.478701078306    -1.996592966871    12.000000000000
         C           -2.041100926018     2.643504078306    -1.723745966871    12.000000000000
         C           -0.690286926018     1.217187078306    -3.112767966871    12.000000000000
         C           -1.551265926018     2.305240078306    -2.981853966871    12.000000000000
         C            3.899082073982    -1.444303921694    -1.144511966871    12.000000000000
         C            3.596441073982     0.936852078306    -0.956873966871    12.000000000000
         C            4.371730073982    -0.150729921694    -1.356377966871    12.000000000000
         H            2.273559073982    -2.650846921694    -0.405636966871     1.007825032230
         H            1.773338073982     1.584794078306    -0.022331966871     1.007825032230
         H           -2.510348926018    -1.979613921694     3.994599033129     1.007825032230
         O           -0.188793926018    -1.993928921694     2.719313033129    15.994914619570
         H           -2.025597926018     2.199870078306     0.369370033129     1.007825032230
         H            0.321966073982    -0.381743921694    -2.123151966871     1.007825032230
         H           -2.710010926018     3.485315078306    -1.608840966871     1.007825032230
         H           -0.317171926018     0.934034078306    -4.087258966871     1.007825032230
         H           -1.840497926018     2.878845078306    -3.851726966871     1.007825032230
         H            4.496268073982    -2.295784921694    -1.440735966871     1.007825032230
         H            3.962089073982     1.944320078306    -1.101310966871     1.007825032230
         H           -3.447230926018     0.638091078306     0.834362033129     1.007825032230
         H           -4.390335926018    -0.568059921694     3.001482033129     1.007825032230
         H            5.335891073982     0.008288078306    -1.818634966871     1.007825032230

  Charge       = 0
  Multiplicity = 1
  Basis Set: 6-311+G*
    Blend: 6-311+G*
  Basis Set: (6-311+G* AUX)
    Blend: HEAVY-AUG-CC-PVTZ-JKFIT

    Orbital Energies [Eh]
    ---------------------

    Doubly Occupied:

       1A    -19.208372     2A    -14.466828     3A    -14.466143
       4A    -10.380909     5A    -10.367827     6A    -10.339336
       7A    -10.318813     8A    -10.318223     9A    -10.304119
      10A    -10.303422    11A    -10.303070    12A    -10.301651
      13A    -10.300544    14A    -10.296003    15A    -10.295703
      16A    -10.293724    17A    -10.293384    18A    -10.291034
      19A    -10.288067    20A    -10.280827    21A     -1.126829
      22A     -1.068421    23A     -1.050793    24A     -0.978582
      25A     -0.962624    26A     -0.908794    27A     -0.872970
      28A     -0.862339    29A     -0.856221    30A     -0.853929
      31A     -0.814370    32A     -0.768791    33A     -0.727154
      34A     -0.721672    35A     -0.712418    36A     -0.694411
      37A     -0.681757    38A     -0.664440    39A     -0.636367
      40A     -0.616204    41A     -0.600660    42A     -0.583845
      43A     -0.581782    44A     -0.560275    45A     -0.555010
      46A     -0.538612    47A     -0.534388    48A     -0.527181
      49A     -0.523249    50A     -0.517055    51A     -0.512488
      52A     -0.510677    53A     -0.499279    54A     -0.484265
      55A     -0.478229    56A     -0.475920    57A     -0.450691
      58A     -0.448095    59A     -0.444634    60A     -0.437552
      61A     -0.430456    62A     -0.407823    63A     -0.366980
      64A     -0.347027    65A     -0.343098    66A     -0.338134
      67A     -0.332052    68A     -0.307807    69A     -0.260398

  @DF-RKS Final Energy:  -840.86669625584341

   => Energetics <=

    Nuclear Repulsion Energy =           1425.1280925636542634
    One-Electron Energy =               -3969.0050794799926734
    Two-Electron Energy =                1785.7204144380846174
    DFT Exchange-Correlation Energy =     -82.6859404729163714
    Empirical Dispersion Energy =          -0.0241833046733246
    VV10 Nonlocal Energy =                  0.0000000000000000
    Total Energy =                       -840.8666962558435216

  Dipole Moment: [D]
     X:    -1.4801      Y:     1.8701      Z:    -2.1543     Total:     3.2139

*** Psi4 exiting successfully. Buy a developer a beer!
