                               Psi4 1.5 release

  ==> Input File <==

--------------------------------------------------------------------------
molecule {
0 1
 C   -0.100807   -0.371223    0.579031
 N    0.706819   -1.268764   -0.086884
 C    1.290197   -1.282693   -1.378597
 C    1.502384   -2.548193   -1.948320
 H    0.938234   -2.086594    0.452076
 C    1.702007   -0.150181   -2.084568
 C   -0.258466   -0.499694    1.933087
 N   -0.938210   -0.152446    4.075388
 C    0.352466   -1.493721    2.819045
 C   -1.101565    0.364704    2.791106
 C   -0.073327   -1.249182    4.075867
 C   -0.692536    0.793107   -0.144936
 C   -2.058473    0.804950   -0.427501
 C    0.040301    1.973526   -0.298650
 C   -2.657988    1.939707   -0.964051
 C   -0.557985    3.111294   -0.827785
 C   -1.907125    3.091966   -1.175090
 C    2.111058   -2.677951   -3.189534
 C    2.292032   -0.288490   -3.339442
 C    2.504776   -1.544280   -3.899006
 H    1.170681   -3.431222   -1.415943
 H    1.571049    0.833131   -1.673540
 H   -1.396459    0.245386    4.871755
 O   -1.820890    1.345968    2.527467
 H   -2.650857   -0.076210   -0.223582
 H    1.069627    2.011471    0.033711
 H   -3.715156    1.931400   -1.190330
 H    0.020963    4.017316   -0.944492
 H   -2.375323    3.978708   -1.580223
 H    2.265139   -3.663639   -3.606970
 H    2.596991    0.601415   -3.872959
 H    1.054173   -2.266251    2.553207
 H    0.173738   -1.755793    4.992028
 H    2.970055   -1.640020   -4.869850
}
memory 8.166666666666666GB
set_num_threads(2)
psi4_io.set_default_path("/scratch/bdw2292/Psi4-1_16_Index_0-farH_in17")
set freeze_core True
E, wfn = energy('wb97x-d/6-311+G*',return_wfn=True)
oeprop(wfn,"WIBERG_LOWDIN_INDICES")
clean()
--------------------------------------------------------------------------

    Molecular point group: c1

    Geometry (in Angstrom), charge = 0, multiplicity = 1:

       Center              X                  Y                   Z               Mass
    ------------   -----------------  -----------------  -----------------  -----------------
         C           -0.100806902067    -0.371223018445     0.579030894748    12.000000000000
         N            0.706819097933    -1.268764018445    -0.086884105252    14.003074004430
         C            1.290197097933    -1.282693018445    -1.378597105252    12.000000000000
         C            1.502384097933    -2.548193018445    -1.948320105252    12.000000000000
         H            0.938234097933    -2.086594018445     0.452075894748     1.007825032230
         C            1.702007097933    -0.150181018445    -2.084568105252    12.000000000000
         C           -0.258465902067    -0.499694018445     1.933086894748    12.000000000000
         N           -0.938209902067    -0.152446018445     4.075387894748    14.003074004430
         C            0.352466097933    -1.493721018445     2.819044894748    12.000000000000
         C           -1.101564902067     0.364703981555     2.791105894748    12.000000000000
         C           -0.073326902067    -1.249182018445     4.075866894748    12.000000000000
         C           -0.692535902067     0.793106981555    -0.144936105252    12.000000000000
         C           -2.058472902067     0.804949981555    -0.427501105252    12.000000000000
         C            0.040301097933     1.973525981555    -0.298650105252    12.000000000000
         C           -2.657987902067     1.939706981555    -0.964051105252    12.000000000000
         C           -0.557984902067     3.111293981555    -0.827785105252    12.000000000000
         C           -1.907124902067     3.091965981555    -1.175090105252    12.000000000000
         C            2.111058097933    -2.677951018445    -3.189534105252    12.000000000000
         C            2.292032097933    -0.288490018445    -3.339442105252    12.000000000000
         C            2.504776097933    -1.544280018445    -3.899006105252    12.000000000000
         H            1.170681097933    -3.431222018445    -1.415943105252     1.007825032230
         H            1.571049097933     0.833130981555    -1.673540105252     1.007825032230
         H           -1.396458902067     0.245385981555     4.871754894748     1.007825032230
         O           -1.820889902067     1.345967981555     2.527466894748    15.994914619570
         H           -2.650856902067    -0.076210018445    -0.223582105252     1.007825032230
         H            1.069627097933     2.011470981555     0.033710894748     1.007825032230
         H           -3.715155902067     1.931399981555    -1.190330105252     1.007825032230
         H            0.020963097933     4.017315981555    -0.944492105252     1.007825032230
         H           -2.375322902067     3.978707981555    -1.580223105252     1.007825032230
         H            2.265139097933    -3.663639018445    -3.606970105252     1.007825032230
         H            2.596991097933     0.601414981555    -3.872959105252     1.007825032230
         H            1.054173097933    -2.266251018445     2.553206894748     1.007825032230
         H            0.173738097933    -1.755793018445     4.992027894748     1.007825032230
         H            2.970055097933    -1.640020018445    -4.869850105252     1.007825032230

  Charge       = 0
  Multiplicity = 1
  Basis Set: 6-311+G*
    Blend: 6-311+G*
  Basis Set: (6-311+G* AUX)
    Blend: HEAVY-AUG-CC-PVTZ-JKFIT

    Orbital Energies [Eh]
    ---------------------

    Doubly Occupied:

       1A    -19.196603     2A    -14.483925     3A    -14.461385
       4A    -10.379292     5A    -10.365415     6A    -10.349152
       7A    -10.325674     8A    -10.304094     9A    -10.299985
      10A    -10.299388    11A    -10.298030    12A    -10.294826
      13A    -10.293144    14A    -10.292520    15A    -10.289578
      16A    -10.289308    17A    -10.288477    18A    -10.287912
      19A    -10.285678    20A    -10.283755    21A     -1.119407
      22A     -1.077063    23A     -1.046161    24A     -0.972448
      25A     -0.960944    26A     -0.909419    27A     -0.869124
      28A     -0.860084    29A     -0.851940    30A     -0.848898
      31A     -0.815699    32A     -0.768174    33A     -0.727393
      34A     -0.719335    35A     -0.703422    36A     -0.694285
      37A     -0.682583    38A     -0.662035    39A     -0.641181
      40A     -0.615060    41A     -0.600351    42A     -0.592269
      43A     -0.566583    44A     -0.552480    45A     -0.547578
      46A     -0.544130    47A     -0.532941    48A     -0.520875
      49A     -0.519133    50A     -0.517778    51A     -0.517601
      52A     -0.508665    53A     -0.492477    54A     -0.489355
      55A     -0.480353    56A     -0.458807    57A     -0.452188
      58A     -0.447731    59A     -0.435509    60A     -0.429874
      61A     -0.425882    62A     -0.404489    63A     -0.362125
      64A     -0.343242    65A     -0.338732    66A     -0.327656
      67A     -0.315726    68A     -0.313640    69A     -0.259748

  @DF-RKS Final Energy:  -840.84749083492784

   => Energetics <=

    Nuclear Repulsion Energy =           1419.3289499208012785
    One-Electron Energy =               -3957.7448189867855035
    Two-Electron Energy =                1780.2666307607310046
    DFT Exchange-Correlation Energy =     -82.6741687017384947
    Empirical Dispersion Energy =          -0.0240838279360976
    VV10 Nonlocal Energy =                  0.0000000000000000
    Total Energy =                       -840.8474908349278394

  Dipole Moment: [D]
     X:     2.1372      Y:    -2.5509      Z:    -0.3949     Total:     3.3512

*** Psi4 exiting successfully. Buy a developer a beer!
