                               Psi4 1.5 release

  ==> Input File <==

--------------------------------------------------------------------------
molecule {
0 1
 C   -0.551941   -0.263463    0.236467
 N    0.725001   -0.710032    0.530562
 C    2.010111   -0.230820    0.169869
 C    3.085452   -1.147644    0.050813
 H    0.726426   -1.425901    1.273585
 C    2.271831    1.157767    0.039987
 C   -1.562925   -0.795077    1.028186
 N   -3.074399   -2.309453    1.755458
 C   -2.266195   -0.241502    2.158645
 C   -2.099450   -2.148098    0.798118
 C   -3.173898   -1.171606    2.561858
 C   -0.886080    0.621952   -0.930294
 C   -0.028110    0.746884   -2.060019
 C   -2.061621    1.424613   -0.898488
 C   -0.332340    1.633466   -3.101814
 C   -2.361805    2.305851   -1.945905
 C   -1.499240    2.418610   -3.052323
 C    4.376955   -0.687038   -0.241070
 C    3.566333    1.607383   -0.254177
 C    4.627522    0.691067   -0.400896
 H    2.908612   -2.218360    0.176449
 H    1.467343    1.884761    0.166569
 H   -3.615640   -3.158935    1.824625
 O   -1.758223   -3.004695   -0.043619
 H    0.872574    0.138037   -2.137751
 H   -2.741702    1.364958   -0.047851
 H    0.342378    1.713287   -3.956089
 H   -3.268266    2.911894   -1.898971
 H   -1.733621    3.108540   -3.864922
 H    5.190350   -1.407517   -0.343644
 H    3.746639    2.677787   -0.367143
 H   -2.111727    0.731263    2.604041
 H   -3.890992   -1.137869    3.370288
 H    5.633802    1.045230   -0.631658
}
set optking {
  frozen_dihedral = ("
    2 1 12 13
    7 1 2 3
    1 2 3 4
  ")
}
set {
  geom_maxiter 400
  g_convergence GAU_LOOSE
  dynamic_level 1
}
memory 8.166666666666666GB
set_num_threads(2)
psi4_io.set_default_path("/scratch/bdw2292/Psi4-1_16_Index_0-farH_in17")
for _ in range(1):
  try:
    set opt_coordinates both
    optimize('wb97x-d/6-311G')
    break
  except OptimizationConvergenceError:
    break
  else:
    try:
      set opt_coordinates cartesian
      optimize('wb97x-d/6-311G')
      break
    except OptimizationConvergenceError:
      pass
clean()
--------------------------------------------------------------------------

    Molecular point group: c1
  Charge       = 0
  Multiplicity = 1
  Basis Set: 6-311G
    Blend: 6-311G
  Basis Set: (6-311G AUX)
    Blend: CC-PVTZ-JKFIT
  @DF-RKS Final Energy:  -840.56919046037899
    Total Energy =                       -840.5691904603789908
    Molecular point group: c1
  Basis Set: 6-311G
    Blend: 6-311G
  Basis Set: (6-311G AUX)
    Blend: CC-PVTZ-JKFIT
  Basis Set: 6-311G
    Blend: 6-311G
  Basis Set: (6-311G AUX)
    Blend: CC-PVTZ-JKFIT
  @DF-RKS Final Energy:  -840.58104526917145
    Total Energy =                       -840.5810452691714545
  Basis Set: 6-311G
    Blend: 6-311G
  Basis Set: (6-311G AUX)
    Blend: CC-PVTZ-JKFIT
  Basis Set: 6-311G
    Blend: 6-311G
  @DF-RKS Final Energy:  -840.59806730264529
    Total Energy =                       -840.5980673026452905
  @DF-RKS Final Energy:  -840.61061684928598
    Total Energy =                       -840.6106168492859751
  @DF-RKS Final Energy:  -840.62216256634758
    Total Energy =                       -840.6221625663474697
  @DF-RKS Final Energy:  -840.63098334231836
    Total Energy =                       -840.6309833423182454
  @DF-RKS Final Energy:  -840.64233313800082
    Total Energy =                       -840.6423331380009358
  @DF-RKS Final Energy:  -840.64757778506589
    Total Energy =                       -840.6475777850657778
  @DF-RKS Final Energy:  -840.64822674462403
    Total Energy =                       -840.6482267446240257
  @DF-RKS Final Energy:  -840.64872705854066
    Total Energy =                       -840.6487270585406577
  @DF-RKS Final Energy:  -840.64923090586092
    Total Energy =                       -840.6492309058608043
  @DF-RKS Final Energy:  -840.64930996130033
    Total Energy =                       -840.6493099613003324
  @DF-RKS Final Energy:  -840.64930399673381
    Total Energy =                       -840.6493039967339200
  @DF-RKS Final Energy:  -840.64930997290764
    Total Energy =                       -840.6493099729077585
  Basis Set: (6-311G AUX)
    Blend: CC-PVTZ-JKFIT
  Basis Set: 6-311G
    Blend: 6-311G
  Basis Set: (6-311G AUX)
    Blend: CC-PVTZ-JKFIT
  @DF-RKS Final Energy:  -840.64928016787189
    Total Energy =                       -840.6492801678720070
  Basis Set: 6-311G
    Blend: 6-311G
  Basis Set: (6-311G AUX)
    Blend: CC-PVTZ-JKFIT
  Charge       = 0
  Multiplicity = 1
  Basis Set: 6-311G
    Blend: 6-311G
  Basis Set: (6-311G AUX)
    Blend: CC-PVTZ-JKFIT

    Orbital Energies [Eh]
    ---------------------

    Doubly Occupied:

       1A    -19.208380     2A    -14.468380     3A    -14.467794
       4A    -10.388452     5A    -10.371658     6A    -10.343920
       7A    -10.322021     8A    -10.320853     9A    -10.305923
      10A    -10.305098    11A    -10.304699    12A    -10.303441
      13A    -10.302560    14A    -10.297973    15A    -10.297750
      16A    -10.296040    17A    -10.295914    18A    -10.293318
      19A    -10.292368    20A    -10.282719    21A     -1.139998
      22A     -1.072254    23A     -1.058868    24A     -0.983312
      25A     -0.968310    26A     -0.913060    27A     -0.876629
      28A     -0.865702    29A     -0.859741    30A     -0.858652
      31A     -0.818862    32A     -0.772812    33A     -0.729859
      34A     -0.725713    35A     -0.715106    36A     -0.697108
      37A     -0.684570    38A     -0.667257    39A     -0.640708
      40A     -0.618875    41A     -0.601444    42A     -0.587615
      43A     -0.582455    44A     -0.564093    45A     -0.556522
      46A     -0.542732    47A     -0.537136    48A     -0.530533
      49A     -0.526002    50A     -0.520474    51A     -0.515667
      52A     -0.512382    53A     -0.498572    54A     -0.484372
      55A     -0.479302    56A     -0.476388    57A     -0.451478
      58A     -0.450268    59A     -0.443854    60A     -0.437424
      61A     -0.430810    62A     -0.406107    63A     -0.366816
      64A     -0.348122    65A     -0.340877    66A     -0.335561
      67A     -0.331336    68A     -0.306881    69A     -0.257627

  @DF-RKS Final Energy:  -840.64931855535247

   => Energetics <=

    Nuclear Repulsion Energy =           1426.0390240380554587
    One-Electron Energy =               -3970.0696464345610366
    Two-Electron Energy =                1786.0825419658863211
    DFT Exchange-Correlation Energy =     -82.6769146798225734
    Empirical Dispersion Energy =          -0.0243234449107787
    VV10 Nonlocal Energy =                  0.0000000000000000
    Total Energy =                       -840.6493185553524654

  Dipole Moment: [D]
     X:    -1.3965      Y:     1.4071      Z:    -2.4904     Total:     3.1831

    Molecular point group: c1
  Basis Set: 6-311G
    Blend: 6-311G
  Basis Set: (6-311G AUX)
    Blend: CC-PVTZ-JKFIT

  -Total Gradient:
     Atom            X                  Y                   Z
    ------   -----------------  -----------------  -----------------
       1        0.011994274744     0.023227607539     0.007269498323
       2       -0.004003666821    -0.008736928859    -0.000624310646
       3       -0.001491925314    -0.002649870419    -0.004082029230
       4        0.000631390680     0.000434213782     0.001377374760
       5        0.000026473773     0.000248727960    -0.000276204686
       6        0.000012451726    -0.000062848494     0.000030935991
       7       -0.001301279955    -0.002796127575    -0.001199031781
       8       -0.000104451956     0.000331597575     0.000119562689
       9        0.000064804492     0.000018614532    -0.000492160592
      10       -0.000085806289    -0.000721256504    -0.000546832634
      11        0.000065010383    -0.000064499109     0.000093150971
      12       -0.013570471576    -0.017465970407    -0.003958069552
      13        0.007536305645     0.008447346583     0.001662038817
      14        0.000106769442    -0.000034827426     0.000087493951
      15       -0.000016469156     0.000003890029     0.000052504160
      16        0.000042481250    -0.000033786191    -0.000041356916
      17       -0.000031234244    -0.000012907501     0.000048302060
      18       -0.000032647056     0.000073016205     0.000010842472
      19        0.000021702141    -0.000065626434     0.000006245433
      20       -0.000060202154    -0.000011409247     0.000028031471
      21        0.000006277680     0.000043720163    -0.000006675668
      22        0.000023895143    -0.000048460969    -0.000009110022
      23       -0.000006430930     0.000108242547    -0.000003238902
      24       -0.000134937269     0.000147613939     0.000044571518
      25       -0.000024948495     0.000029033447     0.000024191241
      26        0.000017774938    -0.000070990209    -0.000110259221
      27       -0.000024516776     0.000010389722     0.000075099905
      28        0.000046249154    -0.000056589385    -0.000004758122
      29        0.000003307541    -0.000015044335     0.000054047142
      30       -0.000043098051     0.000045574248     0.000012397883
      31       -0.000024766893    -0.000045822593     0.000010085874
      32        0.000081059108    -0.000077722606     0.000180269594
      33        0.000237722591     0.000012148860    -0.000020101291
      34       -0.000053340125    -0.000004223949     0.000025429385

  **** Optimization is complete! (in 2 steps) ****
    Final optimized geometry and variables:
    Molecular point group: c1

    Geometry (in Angstrom), charge = 0, multiplicity = 1:

    C           -0.566421218333    -0.090267636147     0.408827451173
    N            0.647149098336    -0.683485262169     0.622892676749
    C            1.889453884697    -0.427091031682    -0.009157231258
    C            2.797607035517    -1.482557333441    -0.123081254703
    H            0.699290155653    -1.196835061336     1.508009119339
    C            2.258253886410     0.850709685328    -0.440796891980
    C           -1.545168025482    -0.295450293719     1.369711872440
    N           -2.440614626027    -0.964881023064     3.343441838827
    C           -2.982181346401    -0.044151606204     1.363687056942
    C           -1.248940441132    -0.930122301112     2.654871747538
    C           -3.479301522813    -0.447591495907     2.554316512646
    C           -0.906414941592     0.471610732593    -0.926181102990
    C           -0.225968077213     0.071525008134    -2.085697970638
    C           -1.799205924321     1.549589755526    -1.021724849599
    C           -0.505249802322     0.661368182013    -3.312761772664
    C           -2.075446427121     2.142550300237    -2.249905417900
    C           -1.434541591109     1.695749571848    -3.402081131481
    C            4.049475921378    -1.268598182027    -0.692867134551
    C            3.504197527678     1.053099529716    -1.024304249107
    C            4.404589262350    -0.003437815363    -1.155545516102
    H            2.509963077866    -2.465349983849     0.225289413078
    H            1.572797081595     1.676580375395    -0.316651938630
    H           -2.527318625701    -1.360911457476     4.258874877027
    O           -0.152673702952    -1.397907704129     3.079204145447
    H            0.488967639952    -0.735294291363    -2.040074282158
    H           -2.251867053474     1.948049423536    -0.126566115024
    H            0.011259411322     0.317694002370    -4.198029115804
    H           -2.774736886746     2.965620984227    -2.301455506446
    H           -1.645301311196     2.157653888500    -4.356771998063
    H            4.744367817730    -2.092652757047    -0.778498863682
    H            3.778148031242     2.043264279443    -1.361842437704
    H           -3.566094201374     0.346135396627     0.551738342693
    H           -4.490120859626    -0.432005701056     2.918629506675
    H            5.374764381965     0.160364058754    -1.603224333156

*** Psi4 exiting successfully. Buy a developer a beer!
