                               Psi4 1.5 release

  ==> Input File <==

--------------------------------------------------------------------------
molecule {
0 1
 C   -0.503787   -0.135011    0.324933
 N    0.626607   -0.889750    0.216991
 C    1.907291   -0.639498   -0.336000
 C    2.966648   -1.317380    0.290761
 H    0.605818   -1.694220    0.851792
 C    2.197083    0.227485   -1.394436
 C   -1.488635   -0.559375    1.195040
 N   -2.494119   -1.793990    2.800845
 C   -2.831634   -0.044200    1.424434
 C   -1.317348   -1.698187    2.092652
 C   -3.401670   -0.800913    2.388587
 C   -0.799985    0.989197   -0.602220
 C   -1.151941    2.244439   -0.100741
 C   -0.921802    0.742778   -1.975473
 C   -1.557307    3.259225   -0.965410
 C   -1.337325    1.752945   -2.835990
 C   -1.647749    3.016742   -2.333491
 C    4.272823   -1.161740   -0.151170
 C    3.514897    0.385205   -1.822242
 C    4.557508   -0.306367   -1.214977
 H    2.751103   -1.964408    1.131547
 H    1.422545    0.786075   -1.887477
 H   -2.660239   -2.503197    3.487951
 O   -0.322429   -2.472247    2.211480
 H   -1.092413    2.424990    0.963814
 H   -0.700909   -0.244342   -2.359391
 H   -1.808189    4.233449   -0.568958
 H   -1.429849    1.552180   -3.894502
 H   -1.968703    3.802190   -3.003908
 H    5.069234   -1.699514    0.344862
 H    3.718543    1.058868   -2.643731
 H   -3.291294    0.779847    0.908884
 H   -4.380792   -0.737874    2.827685
 H    5.574283   -0.178123   -1.558770
}
memory 8.166666666666666GB
set_num_threads(2)
psi4_io.set_default_path("/scratch/bdw2292/Psi4-1_16_Index_0-farH_in17")
set freeze_core True
E, wfn = energy('wb97x-d/6-311+G*',return_wfn=True)
oeprop(wfn,"WIBERG_LOWDIN_INDICES")
clean()
--------------------------------------------------------------------------

    Molecular point group: c1

    Geometry (in Angstrom), charge = 0, multiplicity = 1:

       Center              X                  Y                   Z               Mass
    ------------   -----------------  -----------------  -----------------  -----------------
         C           -0.503786868365    -0.135011061999     0.324932847891    12.000000000000
         N            0.626607131635    -0.889750061999     0.216990847891    14.003074004430
         C            1.907291131635    -0.639498061999    -0.336000152109    12.000000000000
         C            2.966648131635    -1.317380061999     0.290760847891    12.000000000000
         H            0.605818131635    -1.694220061999     0.851791847891     1.007825032230
         C            2.197083131635     0.227484938001    -1.394436152109    12.000000000000
         C           -1.488634868365    -0.559375061999     1.195039847891    12.000000000000
         N           -2.494118868365    -1.793990061999     2.800844847891    14.003074004430
         C           -2.831633868365    -0.044200061999     1.424433847891    12.000000000000
         C           -1.317347868365    -1.698187061999     2.092651847891    12.000000000000
         C           -3.401669868365    -0.800913061999     2.388586847891    12.000000000000
         C           -0.799984868365     0.989196938001    -0.602220152109    12.000000000000
         C           -1.151940868365     2.244438938001    -0.100741152109    12.000000000000
         C           -0.921801868365     0.742777938001    -1.975473152109    12.000000000000
         C           -1.557306868365     3.259224938001    -0.965410152109    12.000000000000
         C           -1.337324868365     1.752944938001    -2.835990152109    12.000000000000
         C           -1.647748868365     3.016741938001    -2.333491152109    12.000000000000
         C            4.272823131635    -1.161740061999    -0.151170152109    12.000000000000
         C            3.514897131635     0.385204938001    -1.822242152109    12.000000000000
         C            4.557508131635    -0.306367061999    -1.214977152109    12.000000000000
         H            2.751103131635    -1.964408061999     1.131546847891     1.007825032230
         H            1.422545131635     0.786074938001    -1.887477152109     1.007825032230
         H           -2.660238868365    -2.503197061999     3.487950847891     1.007825032230
         O           -0.322428868365    -2.472247061999     2.211479847891    15.994914619570
         H           -1.092412868365     2.424989938001     0.963813847891     1.007825032230
         H           -0.700908868365    -0.244342061999    -2.359391152109     1.007825032230
         H           -1.808188868365     4.233448938001    -0.568958152109     1.007825032230
         H           -1.429848868365     1.552179938001    -3.894502152109     1.007825032230
         H           -1.968702868365     3.802189938001    -3.003908152109     1.007825032230
         H            5.069234131635    -1.699514061999     0.344861847891     1.007825032230
         H            3.718543131635     1.058867938001    -2.643731152109     1.007825032230
         H           -3.291293868365     0.779846938001     0.908883847891     1.007825032230
         H           -4.380791868365    -0.737874061999     2.827684847891     1.007825032230
         H            5.574283131635    -0.178123061999    -1.558770152109     1.007825032230

  Charge       = 0
  Multiplicity = 1
  Basis Set: 6-311+G*
    Blend: 6-311+G*
  Basis Set: (6-311+G* AUX)
    Blend: HEAVY-AUG-CC-PVTZ-JKFIT

    Orbital Energies [Eh]
    ---------------------

    Doubly Occupied:

       1A    -19.208070     2A    -14.472600     3A    -14.467068
       4A    -10.380641     5A    -10.367881     6A    -10.342895
       7A    -10.319993     8A    -10.318209     9A    -10.308130
      10A    -10.307342    11A    -10.306645    12A    -10.305903
      13A    -10.305395    14A    -10.293185    15A    -10.292764
      16A    -10.290640    17A    -10.289885    18A    -10.287305
      19A    -10.285774    20A    -10.280335    21A     -1.125647
      22A     -1.070077    23A     -1.050227    24A     -0.983173
      25A     -0.961427    26A     -0.911791    27A     -0.874675
      28A     -0.866740    29A     -0.854257    30A     -0.853392
      31A     -0.813642    32A     -0.770474    33A     -0.727237
      34A     -0.725586    35A     -0.712175    36A     -0.695924
      37A     -0.680404    38A     -0.663672    39A     -0.639150
      40A     -0.615950    41A     -0.600759    42A     -0.584359
      43A     -0.581738    44A     -0.563859    45A     -0.554210
      46A     -0.539017    47A     -0.534236    48A     -0.527972
      49A     -0.522265    50A     -0.516304    51A     -0.513818
      52A     -0.511608    53A     -0.498114    54A     -0.491644
      55A     -0.477881    56A     -0.474513    57A     -0.450394
      58A     -0.449880    59A     -0.445673    60A     -0.437912
      61A     -0.429635    62A     -0.407091    63A     -0.366629
      64A     -0.349637    65A     -0.341701    66A     -0.337554
      67A     -0.334964    68A     -0.309651    69A     -0.258808

  @DF-RKS Final Energy:  -840.86581225271618

   => Energetics <=

    Nuclear Repulsion Energy =           1417.2860140097927797
    One-Electron Energy =               -3953.2343953104768843
    Two-Electron Energy =                1777.7907899015908697
    DFT Exchange-Correlation Energy =     -82.6842375050713230
    Empirical Dispersion Energy =          -0.0239833485516476
    VV10 Nonlocal Energy =                  0.0000000000000000
    Total Energy =                       -840.8658122527161822

  Dipole Moment: [D]
     X:    -1.6152      Y:     2.6474      Z:    -1.4261     Total:     3.4134

*** Psi4 exiting successfully. Buy a developer a beer!
