                               Psi4 1.5 release

  ==> Input File <==

--------------------------------------------------------------------------
molecule {
0 1
 C   -0.285401   -0.511238    0.110602
 N    0.620953   -0.728532   -0.912628
 C    1.636766    0.044848   -1.541653
 C    1.887334   -0.215456   -2.894259
 H    0.714475   -1.703380   -1.142503
 C    2.578393    0.786700   -0.819954
 C   -0.882040   -1.642197    0.640398
 N   -1.802896   -3.120809    2.106983
 C   -0.736660   -3.012632    0.142397
 C   -1.585814   -1.753837    1.939488
 C   -1.310851   -3.853185    1.028676
 C   -0.785583    0.858562    0.441435
 C   -2.156378    0.972506    0.735041
 C   -0.022235    2.033383    0.487574
 C   -2.735557    2.193882    1.046002
 C   -0.602683    3.260713    0.797691
 C   -1.960260    3.349147    1.081131
 C    2.975182    0.362929   -3.539287
 C    3.655932    1.380746   -1.470070
 C    3.853283    1.183566   -2.834751
 H    1.198118   -0.843360   -3.444126
 H    2.505791    0.845004    0.255268
 H   -2.248509   -3.486902    2.925315
 O   -1.901817   -0.908204    2.799778
 H   -2.780232    0.095709    0.688948
 H    1.030978    2.022723    0.292195
 H   -3.792995    2.238185    1.265355
 H    0.017671    4.146134    0.822508
 H   -2.407729    4.302934    1.325871
 H    3.137104    0.168425   -4.590546
 H    4.364403    1.963440   -0.897249
 H   -0.337551   -3.325049   -0.808571
 H   -1.444832   -4.919032    0.975104
 H    4.696007    1.638566   -3.335609
}
memory 8.166666666666666GB
set_num_threads(2)
psi4_io.set_default_path("/scratch/bdw2292/Psi4-1_16_Index_0-farH_in17")
set freeze_core True
E, wfn = energy('wb97x-d/6-311+G*',return_wfn=True)
oeprop(wfn,"WIBERG_LOWDIN_INDICES")
clean()
--------------------------------------------------------------------------

    Molecular point group: c1

    Geometry (in Angstrom), charge = 0, multiplicity = 1:

       Center              X                  Y                   Z               Mass
    ------------   -----------------  -----------------  -----------------  -----------------
         C           -0.285401025503    -0.511237946032     0.110602034639    12.000000000000
         N            0.620952974497    -0.728531946032    -0.912627965361    14.003074004430
         C            1.636765974497     0.044848053968    -1.541652965361    12.000000000000
         C            1.887333974497    -0.215455946032    -2.894258965361    12.000000000000
         H            0.714474974497    -1.703379946032    -1.142502965361     1.007825032230
         C            2.578392974497     0.786700053968    -0.819953965361    12.000000000000
         C           -0.882040025503    -1.642196946032     0.640398034639    12.000000000000
         N           -1.802896025503    -3.120808946032     2.106983034639    14.003074004430
         C           -0.736660025503    -3.012631946032     0.142397034639    12.000000000000
         C           -1.585814025503    -1.753836946032     1.939488034639    12.000000000000
         C           -1.310851025503    -3.853184946032     1.028676034639    12.000000000000
         C           -0.785583025503     0.858562053968     0.441435034639    12.000000000000
         C           -2.156378025503     0.972506053968     0.735041034639    12.000000000000
         C           -0.022235025503     2.033383053968     0.487574034639    12.000000000000
         C           -2.735557025503     2.193882053968     1.046002034639    12.000000000000
         C           -0.602683025503     3.260713053968     0.797691034639    12.000000000000
         C           -1.960260025503     3.349147053968     1.081131034639    12.000000000000
         C            2.975181974497     0.362929053968    -3.539286965361    12.000000000000
         C            3.655931974497     1.380746053968    -1.470069965361    12.000000000000
         C            3.853282974497     1.183566053968    -2.834750965361    12.000000000000
         H            1.198117974497    -0.843359946032    -3.444125965361     1.007825032230
         H            2.505790974497     0.845004053968     0.255268034639     1.007825032230
         H           -2.248509025503    -3.486901946032     2.925315034639     1.007825032230
         O           -1.901817025503    -0.908203946032     2.799778034639    15.994914619570
         H           -2.780232025503     0.095709053968     0.688948034639     1.007825032230
         H            1.030977974497     2.022723053968     0.292195034639     1.007825032230
         H           -3.792995025503     2.238185053968     1.265355034639     1.007825032230
         H            0.017670974497     4.146134053968     0.822508034639     1.007825032230
         H           -2.407729025503     4.302934053968     1.325871034639     1.007825032230
         H            3.137103974497     0.168425053968    -4.590545965361     1.007825032230
         H            4.364402974497     1.963440053968    -0.897248965361     1.007825032230
         H           -0.337551025503    -3.325048946032    -0.808570965361     1.007825032230
         H           -1.444832025503    -4.919031946032     0.975104034639     1.007825032230
         H            4.696006974497     1.638566053968    -3.335608965361     1.007825032230

  Charge       = 0
  Multiplicity = 1
  Basis Set: 6-311+G*
    Blend: 6-311+G*
  Basis Set: (6-311+G* AUX)
    Blend: HEAVY-AUG-CC-PVTZ-JKFIT

    Orbital Energies [Eh]
    ---------------------

    Doubly Occupied:

       1A    -19.192895     2A    -14.480300     3A    -14.459932
       4A    -10.377583     5A    -10.371174     6A    -10.352887
       7A    -10.322683     8A    -10.309450     9A    -10.306127
      10A    -10.306045    11A    -10.305543    12A    -10.305263
      13A    -10.302006    14A    -10.292678    15A    -10.290854
      16A    -10.288656    17A    -10.287673    18A    -10.287114
      19A    -10.284185    20A    -10.282156    21A     -1.117409
      22A     -1.075563    23A     -1.044053    24A     -0.977174
      25A     -0.962782    26A     -0.909602    27A     -0.870149
      28A     -0.866002    29A     -0.855691    30A     -0.848908
      31A     -0.814470    32A     -0.768571    33A     -0.729685
      34A     -0.726025    35A     -0.705605    36A     -0.691500
      37A     -0.683355    38A     -0.659816    39A     -0.645485
      40A     -0.614314    41A     -0.599665    42A     -0.595746
      43A     -0.573528    44A     -0.558558    45A     -0.549315
      46A     -0.544724    47A     -0.534199    48A     -0.525005
      49A     -0.523815    50A     -0.518072    51A     -0.513763
      52A     -0.506642    53A     -0.490652    54A     -0.486237
      55A     -0.477569    56A     -0.461782    57A     -0.460002
      58A     -0.452974    59A     -0.437507    60A     -0.432788
      61A     -0.424758    62A     -0.400621    63A     -0.362608
      64A     -0.347825    65A     -0.338407    66A     -0.331728
      67A     -0.321931    68A     -0.310599    69A     -0.256822

  @DF-RKS Final Energy:  -840.83367660615795

   => Energetics <=

    Nuclear Repulsion Energy =           1410.4183584163911291
    One-Electron Energy =               -3939.7000435998047578
    Two-Electron Energy =                1771.1451449313624380
    DFT Exchange-Correlation Energy =     -82.6736604278743954
    Empirical Dispersion Energy =          -0.0234759262323614
    VV10 Nonlocal Energy =                  0.0000000000000000
    Total Energy =                       -840.8336766061579510

  Dipole Moment: [D]
     X:     2.2085      Y:    -1.2260      Z:    -3.3366     Total:     4.1849

*** Psi4 exiting successfully. Buy a developer a beer!
