                               Psi4 1.5 release

  ==> Input File <==

--------------------------------------------------------------------------
molecule {
0 1
 C   -0.574518   -0.253012    0.219634
 N    0.677733   -0.675357    0.550113
 C    1.988930   -0.337019    0.132605
 C    2.929322   -1.377000    0.218464
 H    0.654209   -1.329197    1.341978
 C    2.410324    0.913205   -0.322109
 C   -1.619599   -0.600129    1.051496
 N   -2.720416   -1.593554    2.756083
 C   -3.030805   -0.252043    0.973830
 C   -1.463885   -1.478824    2.204402
 C   -3.657024   -0.852257    2.010944
 C   -0.865596    0.682456   -0.906849
 C   -0.546721    2.041312   -0.847121
 C   -1.468515    0.174721   -2.061328
 C   -0.838122    2.880814   -1.918141
 C   -1.755013    1.014315   -3.135198
 C   -1.436693    2.368045   -3.067150
 C    4.256581   -1.167097   -0.126848
 C    3.741832    1.110469   -0.686759
 C    4.671628    0.081322   -0.590011
 H    2.601803   -2.350168    0.559662
 H    1.725177    1.736479   -0.393787
 H   -2.910508   -2.140908    3.572687
 O   -0.413053   -2.039966    2.632749
 H   -0.125037    2.452666    0.059783
 H   -1.712871   -0.877474   -2.110815
 H   -0.602473    3.934133   -1.852875
 H   -2.223812    0.611046   -4.022024
 H   -1.658476    3.020748   -3.900233
 H    4.963586   -1.981145   -0.043954
 H    4.048007    2.085540   -1.040677
 H   -3.484609    0.386127    0.236429
 H   -4.690608   -0.824276    2.304989
 H    5.702768    0.247014   -0.868813
}
memory 8.166666666666666GB
set_num_threads(2)
psi4_io.set_default_path("/scratch/bdw2292/Psi4-1_16_Index_0-farH_in17")
set freeze_core True
E, wfn = energy('wb97x-d/6-311+G*',return_wfn=True)
oeprop(wfn,"WIBERG_LOWDIN_INDICES")
clean()
--------------------------------------------------------------------------

    Molecular point group: c1

    Geometry (in Angstrom), charge = 0, multiplicity = 1:

       Center              X                  Y                   Z               Mass
    ------------   -----------------  -----------------  -----------------  -----------------
         C           -0.574517909902    -0.253012020406     0.219633996485    12.000000000000
         N            0.677733090098    -0.675357020406     0.550112996485    14.003074004430
         C            1.988930090098    -0.337019020406     0.132604996485    12.000000000000
         C            2.929322090098    -1.377000020406     0.218463996485    12.000000000000
         H            0.654209090098    -1.329197020406     1.341977996485     1.007825032230
         C            2.410324090098     0.913204979594    -0.322109003515    12.000000000000
         C           -1.619598909902    -0.600129020406     1.051495996485    12.000000000000
         N           -2.720415909902    -1.593554020406     2.756082996485    14.003074004430
         C           -3.030804909902    -0.252043020406     0.973829996485    12.000000000000
         C           -1.463884909902    -1.478824020406     2.204401996485    12.000000000000
         C           -3.657023909902    -0.852257020406     2.010943996485    12.000000000000
         C           -0.865595909902     0.682455979594    -0.906849003515    12.000000000000
         C           -0.546720909902     2.041311979594    -0.847121003515    12.000000000000
         C           -1.468514909902     0.174720979594    -2.061328003515    12.000000000000
         C           -0.838121909902     2.880813979594    -1.918141003515    12.000000000000
         C           -1.755012909902     1.014314979594    -3.135198003515    12.000000000000
         C           -1.436692909902     2.368044979594    -3.067150003515    12.000000000000
         C            4.256581090098    -1.167097020406    -0.126848003515    12.000000000000
         C            3.741832090098     1.110468979594    -0.686759003515    12.000000000000
         C            4.671628090098     0.081321979594    -0.590011003515    12.000000000000
         H            2.601803090098    -2.350168020406     0.559661996485     1.007825032230
         H            1.725177090098     1.736478979594    -0.393787003515     1.007825032230
         H           -2.910507909902    -2.140908020406     3.572686996485     1.007825032230
         O           -0.413052909902    -2.039966020406     2.632748996485    15.994914619570
         H           -0.125036909902     2.452665979594     0.059782996485     1.007825032230
         H           -1.712870909902    -0.877474020406    -2.110815003515     1.007825032230
         H           -0.602472909902     3.934132979594    -1.852875003515     1.007825032230
         H           -2.223811909902     0.611045979594    -4.022024003515     1.007825032230
         H           -1.658475909902     3.020747979594    -3.900233003515     1.007825032230
         H            4.963586090098    -1.981145020406    -0.043954003515     1.007825032230
         H            4.048007090098     2.085539979594    -1.040677003515     1.007825032230
         H           -3.484608909902     0.386126979594     0.236428996485     1.007825032230
         H           -4.690607909902    -0.824276020406     2.304988996485     1.007825032230
         H            5.702768090098     0.247013979594    -0.868813003515     1.007825032230

  Charge       = 0
  Multiplicity = 1
  Basis Set: 6-311+G*
    Blend: 6-311+G*
  Basis Set: (6-311+G* AUX)
    Blend: HEAVY-AUG-CC-PVTZ-JKFIT

    Orbital Energies [Eh]
    ---------------------

    Doubly Occupied:

       1A    -19.206898     2A    -14.472342     3A    -14.465735
       4A    -10.378620     5A    -10.367700     6A    -10.343115
       7A    -10.319565     8A    -10.316658     9A    -10.307818
      10A    -10.305726    11A    -10.304863    12A    -10.304203
      13A    -10.303467    14A    -10.294866    15A    -10.294268
      16A    -10.292770    17A    -10.292303    18A    -10.289862
      19A    -10.282988    20A    -10.278821    21A     -1.124167
      22A     -1.068695    23A     -1.048853    24A     -0.981943
      25A     -0.962970    26A     -0.911228    27A     -0.872724
      28A     -0.865867    29A     -0.855518    30A     -0.854731
      31A     -0.812999    32A     -0.769526    33A     -0.726537
      34A     -0.724112    35A     -0.713105    36A     -0.696443
      37A     -0.679422    38A     -0.663910    39A     -0.641504
      40A     -0.616132    41A     -0.600076    42A     -0.585461
      43A     -0.580238    44A     -0.563425    45A     -0.553602
      46A     -0.545125    47A     -0.536927    48A     -0.526137
      49A     -0.520970    50A     -0.516255    51A     -0.514365
      52A     -0.509407    53A     -0.497699    54A     -0.483390
      55A     -0.477857    56A     -0.472491    57A     -0.453084
      58A     -0.450459    59A     -0.444742    60A     -0.437557
      61A     -0.428599    62A     -0.405514    63A     -0.360273
      64A     -0.347582    65A     -0.345606    66A     -0.337367
      67A     -0.335274    68A     -0.310996    69A     -0.258614

  @DF-RKS Final Energy:  -840.86154663457273

   => Energetics <=

    Nuclear Repulsion Energy =           1414.5919182750328673
    One-Electron Energy =               -3947.8912336389421398
    Two-Electron Energy =                1775.1445536862290737
    DFT Exchange-Correlation Energy =     -82.6831725934113564
    Empirical Dispersion Energy =          -0.0236123634813707
    VV10 Nonlocal Energy =                  0.0000000000000000
    Total Energy =                       -840.8615466345726190

  Dipole Moment: [D]
     X:    -1.2848      Y:     2.0466      Z:    -2.2702     Total:     3.3156

*** Psi4 exiting successfully. Buy a developer a beer!
