                               Psi4 1.5 release

  ==> Input File <==

--------------------------------------------------------------------------
molecule {
0 1
 C   -0.613018   -0.308802    0.259129
 N    0.654303   -0.856798    0.414801
 C    1.920643   -0.531014   -0.137871
 C    2.863856   -1.579034   -0.309020
 H    0.693211   -1.530971    1.204666
 C    2.307661    0.793090   -0.465424
 C   -1.622314   -0.647690    1.167773
 N   -2.641407   -1.644508    2.940289
 C   -3.002777   -0.224193    1.225664
 C   -1.429647   -1.582331    2.297552
 C   -3.579916   -0.834564    2.296578
 C   -0.855996    0.740517   -0.761209
 C   -0.934666    2.104181   -0.383879
 C   -1.014863    0.387310   -2.122807
 C   -1.165244    3.090903   -1.350903
 C   -1.247381    1.378578   -3.085646
 C   -1.323332    2.735276   -2.706505
 C    4.137691   -1.311628   -0.827861
 C    3.584060    1.050103   -0.985668
 C    4.507575    0.002730   -1.174509
 H    2.596074   -2.603458   -0.039958
 H    1.626383    1.628151   -0.313664
 H   -2.787351   -2.214905    3.760336
 O   -0.388715   -2.206740    2.625776
 H   -0.814466    2.377326    0.666299
 H   -0.953604   -0.662568   -2.415665
 H   -1.222205    4.138725   -1.051397
 H   -1.370150    1.098491   -4.133323
 H   -1.504279    3.505811   -3.458252
 H    4.843713   -2.133177   -0.961089
 H    3.859458    2.074509   -1.242376
 H   -3.498190    0.454974    0.545438
 H   -4.591509   -0.770739    2.672430
 H    5.499561    0.207787   -1.580817
}
set optking {
  frozen_dihedral = ("
    2 1 12 13
    7 1 2 3
    1 2 3 4
  ")
}
set {
  geom_maxiter 400
  g_convergence GAU_LOOSE
  dynamic_level 1
}
memory 8.166666666666666GB
set_num_threads(2)
psi4_io.set_default_path("/scratch/bdw2292/Psi4-1_16_Index_0-farH_in17")
for _ in range(1):
  try:
    set opt_coordinates both
    optimize('wb97x-d/6-311G')
    break
  except OptimizationConvergenceError:
    break
  else:
    try:
      set opt_coordinates cartesian
      optimize('wb97x-d/6-311G')
      break
    except OptimizationConvergenceError:
      pass
clean()
--------------------------------------------------------------------------

    Molecular point group: c1
  Charge       = 0
  Multiplicity = 1
  Basis Set: 6-311G
    Blend: 6-311G
  Basis Set: (6-311G AUX)
    Blend: CC-PVTZ-JKFIT
  @DF-RKS Final Energy:  -840.64567292598792
    Total Energy =                       -840.6456729259880376
    Molecular point group: c1
  Basis Set: 6-311G
    Blend: 6-311G
  Basis Set: (6-311G AUX)
    Blend: CC-PVTZ-JKFIT
  Basis Set: 6-311G
    Blend: 6-311G
  Basis Set: (6-311G AUX)
    Blend: CC-PVTZ-JKFIT
  @DF-RKS Final Energy:  -840.65203233859165
    Total Energy =                       -840.6520323385916527
  Basis Set: 6-311G
    Blend: 6-311G
  Basis Set: (6-311G AUX)
    Blend: CC-PVTZ-JKFIT
  Basis Set: 6-311G
    Blend: 6-311G
  @DF-RKS Final Energy:  -840.65225517153920
    Total Energy =                       -840.6522551715391955
  @DF-RKS Final Energy:  -840.65242683945780
    Total Energy =                       -840.6524268394578030
  @DF-RKS Final Energy:  -840.65255123934162
    Total Energy =                       -840.6525512393416193
  @DF-RKS Final Energy:  -840.65254718030917
    Total Energy =                       -840.6525471803090568
  @DF-RKS Final Energy:  -840.65255123583700
    Total Energy =                       -840.6525512358371088
  @DF-RKS Final Energy:  -840.65254123309137
    Total Energy =                       -840.6525412330913696
  @DF-RKS Final Energy:  -840.65256788293118
    Total Energy =                       -840.6525678829311801
  Basis Set: (6-311G AUX)
    Blend: CC-PVTZ-JKFIT
  Basis Set: 6-311G
    Blend: 6-311G
  Basis Set: (6-311G AUX)
    Blend: CC-PVTZ-JKFIT
  @DF-RKS Final Energy:  -840.65258195303829
    Total Energy =                       -840.6525819530382932
  Basis Set: 6-311G
    Blend: 6-311G
  Basis Set: (6-311G AUX)
    Blend: CC-PVTZ-JKFIT
  Charge       = 0
  Multiplicity = 1
  Basis Set: 6-311G
    Blend: 6-311G
  Basis Set: (6-311G AUX)
    Blend: CC-PVTZ-JKFIT

    Orbital Energies [Eh]
    ---------------------

    Doubly Occupied:

       1A    -19.205949     2A    -14.472474     3A    -14.466344
       4A    -10.386105     5A    -10.369082     6A    -10.345383
       7A    -10.321146     8A    -10.318345     9A    -10.307908
      10A    -10.307041    11A    -10.306411    12A    -10.305798
      13A    -10.305154    14A    -10.296123    15A    -10.296082
      16A    -10.294524    17A    -10.294114    18A    -10.291565
      19A    -10.287417    20A    -10.280467    21A     -1.136634
      22A     -1.073662    23A     -1.056096    24A     -0.985489
      25A     -0.967455    26A     -0.913403    27A     -0.876344
      28A     -0.868162    29A     -0.858339    30A     -0.857821
      31A     -0.817376    32A     -0.772476    33A     -0.728640
      34A     -0.722408    35A     -0.719617    36A     -0.699031
      37A     -0.681330    38A     -0.667826    39A     -0.641751
      40A     -0.620479    41A     -0.599574    42A     -0.583796
      43A     -0.582978    44A     -0.568953    45A     -0.554472
      46A     -0.547462    47A     -0.536554    48A     -0.528923
      49A     -0.523717    50A     -0.519220    51A     -0.517806
      52A     -0.510456    53A     -0.496574    54A     -0.482799
      55A     -0.478692    56A     -0.473435    57A     -0.452099
      58A     -0.449845    59A     -0.444998    60A     -0.439233
      61A     -0.427491    62A     -0.403460    63A     -0.360453
      64A     -0.346138    65A     -0.345374    66A     -0.335397
      67A     -0.332182    68A     -0.308853    69A     -0.256116

  @DF-RKS Final Energy:  -840.65258226926892

   => Energetics <=

    Nuclear Repulsion Energy =           1423.1595832216180497
    One-Electron Energy =               -3964.3810482631542982
    Two-Electron Energy =                1783.2672784015865091
    DFT Exchange-Correlation Energy =     -82.6742944742857162
    Empirical Dispersion Energy =          -0.0241011550335060
    VV10 Nonlocal Energy =                  0.0000000000000000
    Total Energy =                       -840.6525822692689189

  Dipole Moment: [D]
     X:    -1.0981      Y:     2.4422      Z:    -2.0259     Total:     3.3577

    Molecular point group: c1
  Basis Set: 6-311G
    Blend: 6-311G
  Basis Set: (6-311G AUX)
    Blend: CC-PVTZ-JKFIT

  -Total Gradient:
     Atom            X                  Y                   Z
    ------   -----------------  -----------------  -----------------
       1       -0.001406586893    -0.009120893908    -0.008466165155
       2        0.001019231847     0.001418436661    -0.001163298673
       3        0.001345445815     0.002844428517     0.004383142607
       4       -0.000198535392     0.000132550269    -0.000314505463
       5       -0.000213881694    -0.000353834794     0.000153626312
       6        0.000018566741    -0.000219522785    -0.000013986169
       7        0.001370998235     0.003860445131     0.003036751619
       8       -0.000205225827     0.000264905449    -0.000121234780
       9        0.000032645959    -0.000127904890    -0.000328346595
      10        0.000715807233    -0.001263310435    -0.000176143280
      11        0.000078731264     0.000101808692     0.000293545764
      12       -0.008180263266     0.001536169587     0.003613621032
      13        0.005969715606     0.000307241725    -0.001127121844
      14        0.000068485129     0.000235246827    -0.000055287009
      15        0.000022840832    -0.000206159760    -0.000011326141
      16        0.000018687097    -0.000019718429     0.000143225517
      17        0.000031090464    -0.000001372121     0.000038867457
      18       -0.000099300345     0.000178673345     0.000046685613
      19       -0.000035392186    -0.000095592318     0.000030889992
      20       -0.000027083089    -0.000076993056     0.000036057544
      21       -0.000008966574    -0.000018658288     0.000023252563
      22        0.000028743802     0.000026303165     0.000003112785
      23       -0.000005808945    -0.000083756009     0.000040766882
      24       -0.000266419888     0.000598521218     0.000199196338
      25        0.000019991461     0.000002862985     0.000041299085
      26       -0.000007240423    -0.000004615295     0.000009585382
      27        0.000014976203     0.000055515019     0.000031433042
      28        0.000004272837     0.000034449545    -0.000020071115
      29        0.000012403737     0.000010428343     0.000005038886
      30        0.000015729335    -0.000039411101    -0.000028269484
      31        0.000026170732    -0.000010196163     0.000012780912
      32       -0.000057428668     0.000045204982    -0.000033694238
      33       -0.000017978927     0.000067730285     0.000039186738
      34       -0.000011072893    -0.000041457041    -0.000011059579

  **** Optimization is complete! (in 4 steps) ****
    Final optimized geometry and variables:
    Molecular point group: c1

    Geometry (in Angstrom), charge = 0, multiplicity = 1:

    C           -0.610980590936    -0.276562389163     0.305075460016
    N            0.604182474372    -0.879561060430     0.422555913502
    C            1.861058487780    -0.539932489631    -0.134087348887
    C            2.744873354671    -1.598181052486    -0.381412201662
    H            0.608317384608    -1.633072730528     1.117131706650
    C            2.270941910466     0.768571050932    -0.401965311918
    C           -1.616953204313    -0.617262465590     1.178294836297
    N           -2.671018944186    -1.688127910768     2.864352782433
    C           -2.987022512078    -0.134149778951     1.263377867092
    C           -1.456532863377    -1.630977011620     2.215574066622
    C           -3.584889897573    -0.786410775945     2.285640936172
    C           -0.831066853444     0.797486612624    -0.703226590478
    C           -0.831115201945     2.140837230636    -0.317003581633
    C           -0.955010298473     0.468660751285    -2.054122271876
    C           -0.980061529279     3.142713920748    -1.271557717414
    C           -1.103422927074     1.472454888057    -3.007786096825
    C           -1.115168431276     2.809872383110    -2.618571921070
    C            4.014265281095    -1.352971102672    -0.889877430537
    C            3.538927671954     1.003662540424    -0.928691363448
    C            4.416294400165    -0.048862238237    -1.174631536446
    H            2.422290198622    -2.610238010214    -0.175354495344
    H            1.618170180566     1.600246424591    -0.195936938585
    H           -2.852337343665    -2.306384219047     3.631053706278
    O           -0.437826690145    -2.329647660019     2.485014266672
    H           -0.724824295344     2.391870589217     0.730276029136
    H           -0.929390249257    -0.570301602038    -2.353389058668
    H           -0.986084194841     4.179996621256    -0.965587625681
    H           -1.203440397402     1.210362333705    -4.051996666220
    H           -1.227044177661     3.588962427704    -3.360136057583
    H            4.685320519548    -2.181382622460    -1.071408599173
    H            3.843030323665     2.021016233158    -1.134308447181
    H           -3.434285089703     0.612827276844     0.631450622581
    H           -4.585588775658    -0.701513642320     2.669114433296
    H            5.400671490514     0.143303904827    -1.577895507056

*** Psi4 exiting successfully. Buy a developer a beer!
