                               Psi4 1.5 release

  ==> Input File <==

--------------------------------------------------------------------------
molecule {
0 1
 C   -0.586512   -0.293414    0.357764
 N    0.651495   -0.897511    0.511990
 C    1.887118   -0.579672   -0.100858
 C    2.555153   -1.552515   -0.882218
 H    0.708913   -1.510144    1.348923
 C    2.463590    0.703874    0.057594
 C   -1.598376   -0.573363    1.286270
 N   -2.588657   -1.376308    3.171561
 C   -3.008488   -0.256541    1.260153
 C   -1.373663   -1.337216    2.532851
 C   -3.565228   -0.737531    2.404971
 C   -0.776863    0.703429   -0.735334
 C   -1.359687    1.969395   -0.466118
 C   -0.437964    0.379749   -2.075821
 C   -1.573316    2.888564   -1.501537
 C   -0.649477    1.305246   -3.105935
 C   -1.216711    2.564669   -2.826051
 C    3.773276   -1.239277   -1.500770
 C    3.682168    1.006980   -0.564811
 C    4.346098    0.040698   -1.348897
 H    2.120448   -2.546783   -1.004274
 H    1.958092    1.459762    0.661848
 H   -2.713101   -1.828392    4.065490
 O   -0.308675   -1.861288    2.946431
 H   -1.636411    2.228865    0.557553
 H   -0.010637   -0.598262   -2.304578
 H   -2.017639    3.860390   -1.279400
 H   -0.375398    1.047317   -4.130412
 H   -1.380487    3.284073   -3.630378
 H    4.276979   -1.997110   -2.103055
 H    4.115493    2.000385   -0.437869
 H   -3.536645    0.273865    0.479903
 H   -4.586379   -0.688120    2.756304
 H    5.294651    0.281528   -1.832401
}
set optking {
  frozen_dihedral = ("
    1 2 3 4
    2 1 12 13
    7 1 2 3
  ")
}
set {
  geom_maxiter 400
  g_convergence GAU_LOOSE
  dynamic_level 1
}
memory 8.166666666666666GB
set_num_threads(2)
psi4_io.set_default_path("/scratch/bdw2292/Psi4-1_16_Index_0-farH_in17")
for _ in range(1):
  try:
    set opt_coordinates both
    optimize('wb97x-d/6-311G')
    break
  except OptimizationConvergenceError:
    break
  else:
    try:
      set opt_coordinates cartesian
      optimize('wb97x-d/6-311G')
      break
    except OptimizationConvergenceError:
      pass
clean()
--------------------------------------------------------------------------

    Molecular point group: c1
  Charge       = 0
  Multiplicity = 1
  Basis Set: 6-311G
    Blend: 6-311G
  Basis Set: (6-311G AUX)
    Blend: CC-PVTZ-JKFIT
  @DF-RKS Final Energy:  -840.64640270586915
    Total Energy =                       -840.6464027058691499
    Molecular point group: c1
  Basis Set: 6-311G
    Blend: 6-311G
  Basis Set: (6-311G AUX)
    Blend: CC-PVTZ-JKFIT
  Basis Set: 6-311G
    Blend: 6-311G
  Basis Set: (6-311G AUX)
    Blend: CC-PVTZ-JKFIT
  @DF-RKS Final Energy:  -840.65349917570006
    Total Energy =                       -840.6534991756999489
  Basis Set: 6-311G
    Blend: 6-311G
  Basis Set: (6-311G AUX)
    Blend: CC-PVTZ-JKFIT
  Basis Set: 6-311G
    Blend: 6-311G
  @DF-RKS Final Energy:  -840.65423376735612
    Total Energy =                       -840.6542337673561178
  @DF-RKS Final Energy:  -840.65433896461900
    Total Energy =                       -840.6543389646191144
  @DF-RKS Final Energy:  -840.65444475003710
    Total Energy =                       -840.6544447500371007
  @DF-RKS Final Energy:  -840.65449135475671
    Total Energy =                       -840.6544913547568285
  Basis Set: (6-311G AUX)
    Blend: CC-PVTZ-JKFIT
  Basis Set: 6-311G
    Blend: 6-311G
  Basis Set: (6-311G AUX)
    Blend: CC-PVTZ-JKFIT
  @DF-RKS Final Energy:  -840.65451084126926
    Total Energy =                       -840.6545108412692571
  Basis Set: 6-311G
    Blend: 6-311G
  Basis Set: (6-311G AUX)
    Blend: CC-PVTZ-JKFIT
  Charge       = 0
  Multiplicity = 1
  Basis Set: 6-311G
    Blend: 6-311G
  Basis Set: (6-311G AUX)
    Blend: CC-PVTZ-JKFIT

    Orbital Energies [Eh]
    ---------------------

    Doubly Occupied:

       1A    -19.202099     2A    -14.464942     3A    -14.463878
       4A    -10.382941     5A    -10.367146     6A    -10.342391
       7A    -10.318546     8A    -10.316016     9A    -10.304729
      10A    -10.304270    11A    -10.303579    12A    -10.302720
      13A    -10.302050    14A    -10.301043    15A    -10.300330
      16A    -10.299687    17A    -10.299148    18A    -10.298627
      19A    -10.284878    20A    -10.278971    21A     -1.133116
      22A     -1.070152    23A     -1.053220    24A     -0.982312
      25A     -0.969751    26A     -0.909961    27A     -0.873416
      28A     -0.864782    29A     -0.862832    30A     -0.857904
      31A     -0.816491    32A     -0.769207    33A     -0.727339
      34A     -0.721446    35A     -0.719351    36A     -0.696791
      37A     -0.680676    38A     -0.669147    39A     -0.640232
      40A     -0.620119    41A     -0.597551    42A     -0.582459
      43A     -0.582210    44A     -0.567898    45A     -0.556465
      46A     -0.548685    47A     -0.538544    48A     -0.527058
      49A     -0.523173    50A     -0.520878    51A     -0.514709
      52A     -0.509426    53A     -0.494267    54A     -0.479090
      55A     -0.473955    56A     -0.470685    57A     -0.453312
      58A     -0.450988    59A     -0.444141    60A     -0.440600
      61A     -0.425471    62A     -0.400761    63A     -0.358429
      64A     -0.344927    65A     -0.341120    66A     -0.335588
      67A     -0.329441    68A     -0.314722    69A     -0.256150

  @DF-RKS Final Energy:  -840.65451751621617

   => Energetics <=

    Nuclear Repulsion Energy =           1431.7956255224687538
    One-Electron Energy =               -3981.7959199309289033
    Two-Electron Energy =                1792.0441097380380597
    DFT Exchange-Correlation Energy =     -82.6736620188426770
    Empirical Dispersion Energy =          -0.0246708269515850
    VV10 Nonlocal Energy =                  0.0000000000000000
    Total Energy =                       -840.6545175162161740

  Dipole Moment: [D]
     X:    -0.5850      Y:     2.4019      Z:    -2.5432     Total:     3.5467

    Molecular point group: c1
  Basis Set: 6-311G
    Blend: 6-311G
  Basis Set: (6-311G AUX)
    Blend: CC-PVTZ-JKFIT

  -Total Gradient:
     Atom            X                  Y                   Z
    ------   -----------------  -----------------  -----------------
       1       -0.001317473676    -0.002316083653    -0.002563758667
       2       -0.000417502758     0.001509486555    -0.000026558210
       3        0.002385950860    -0.001472188400     0.003827698390
       4       -0.001559056916     0.001056844775    -0.002536194492
       5        0.000048757730    -0.000148894005     0.000222104936
       6        0.000039275677    -0.000016802239     0.000025539060
       7        0.000523202782     0.001669901382     0.001101713834
       8       -0.000072859491     0.000261895744     0.000045307524
       9        0.000082332209     0.000130134730    -0.000023716640
      10        0.000209066741    -0.000196291022     0.000057141569
      11       -0.000104903498    -0.000310866390     0.000025735129
      12        0.001462003575     0.000317572602     0.000058215626
      13       -0.001224190109    -0.000474796563    -0.000314988999
      14        0.000008684610     0.000037194651    -0.000118349711
      15       -0.000028478876    -0.000024513604     0.000098913216
      16       -0.000006152746    -0.000040521299    -0.000013524078
      17        0.000029525441     0.000039910555    -0.000002625672
      18       -0.000010244734    -0.000041414250     0.000039523046
      19       -0.000032391329     0.000035731710     0.000010886463
      20        0.000020880975     0.000008139600    -0.000037119457
      21        0.000006740827     0.000011729881    -0.000018004306
      22        0.000010397601    -0.000002329331     0.000002624137
      23       -0.000038641536    -0.000075520357     0.000139530438
      24       -0.000000988559    -0.000147332998    -0.000104567102
      25        0.000016618522     0.000003859612     0.000055502693
      26       -0.000004227086    -0.000002613896    -0.000007605076
      27        0.000022132540     0.000024939243     0.000033335424
      28        0.000003717019     0.000018951178    -0.000008898045
      29        0.000002951267     0.000029330250     0.000035778309
      30       -0.000006302997    -0.000005711382    -0.000032779885
      31        0.000007701781    -0.000013442657     0.000014300582
      32       -0.000037824013     0.000101492197    -0.000070408970
      33       -0.000043028196    -0.000011451526    -0.000021211166
      34       -0.000023107900    -0.000007574129     0.000004067548

  **** Optimization is complete! (in 8 steps) ****
    Final optimized geometry and variables:
    Molecular point group: c1

    Geometry (in Angstrom), charge = 0, multiplicity = 1:

    C           -0.571687276055    -0.293924615160     0.392193745773
    N            0.629558066631    -0.914687920971     0.558317834682
    C            1.856408872208    -0.534854185676    -0.060439153404
    C            2.529392739508    -1.445293493502    -0.875593122182
    H            0.652427591134    -1.597408928677     1.320585998406
    C            2.367173544209     0.751215047124     0.116325739565
    C           -1.599113169586    -0.570067760050     1.268801756154
    N           -2.648812199908    -1.492131490745     3.045916022952
    C           -2.987276302138    -0.128987366711     1.285559316305
    C           -1.428585464176    -1.469408070384     2.404822410327
    C           -3.582191042529    -0.693120370606     2.361089778000
    C           -0.736033424301     0.655659096412    -0.738238150262
    C           -1.270170144742     1.929319752465    -0.518351947613
    C           -0.370975048158     0.281947614495    -2.036726421946
    C           -1.420920707375     2.820617920036    -1.577605961570
    C           -0.528788172296     1.170983965248    -3.093684372654
    C           -1.049699668833     2.444081162148    -2.866325214496
    C            3.718886583283    -1.074467686877    -1.497357922478
    C            3.546618046745     1.124193012763    -0.520968180999
    C            4.226552165916     0.212452905749    -1.326804190319
    H            2.113920547082    -2.433971165989    -1.015662510427
    H            1.833734990591     1.449127367061     0.746385174351
    H           -2.823310198930    -2.039062120656     3.866518149580
    O           -0.402599527948    -2.123551655701     2.752169767135
    H           -1.546337769102     2.223155560798     0.485115710063
    H            0.034780560381    -0.703747349787    -2.214570565471
    H           -1.822186027930     3.808171496166    -1.395229445452
    H           -0.243142275146     0.871589096779    -4.092588082598
    H           -1.164526009769     3.137573898655    -3.688161068999
    H            4.241002853572    -1.784725543177    -2.123840749022
    H            3.935315768308     2.123926614002    -0.384610396707
    H           -3.459426184159     0.515798090943     0.565770703824
    H           -4.594841488379    -0.610836966265     2.712437840186
    H            5.144784633935     0.502404299364    -1.818541949890

*** Psi4 exiting successfully. Buy a developer a beer!
