                               Psi4 1.5 release

  ==> Input File <==

--------------------------------------------------------------------------
molecule {
0 1
 C   -0.553516   -0.080630    0.357896
 N    0.689037   -0.546261    0.676075
 C    1.966834   -0.290726    0.131056
 C    2.237506    0.562360   -0.945379
 H    0.704643   -1.009186    1.590089
 C    3.031706   -0.979778    0.733075
 C   -1.577937   -0.269488    1.260827
 N   -2.612334   -0.879367    3.177366
 C   -3.003901    0.004591    1.143377
 C   -1.370531   -0.856950    2.582796
 C   -3.588268   -0.363679    2.305224
 C   -0.849115    0.455040   -0.995208
 C   -1.477070    1.693085   -1.148569
 C   -0.577815   -0.325162   -2.125548
 C   -1.804250    2.160353   -2.419943
 C   -0.912544    0.139813   -3.391800
 C   -1.522205    1.385808   -3.542349
 C    3.545875    0.708637   -1.402476
 C    4.331043   -0.822773    0.270888
 C    4.598188    0.019906   -0.807259
 H    1.454386    1.131722   -1.415233
 H    2.828647   -1.638937    1.567437
 H   -2.770664   -1.243735    4.096530
 O   -0.299748   -1.290409    3.097397
 H   -1.693050    2.290027   -0.273038
 H   -0.099634   -1.287622   -2.004338
 H   -2.279303    3.125327   -2.531540
 H   -0.700673   -0.468105   -4.260505
 H   -1.778835    1.747175   -4.528734
 H    3.736417    1.375335   -2.232714
 H    5.134989   -1.362161    0.752858
 H   -3.503076    0.413971    0.283574
 H   -4.619858   -0.318881    2.604103
 H    5.608669    0.140659   -1.171524
}
memory 8.166666666666666GB
set_num_threads(2)
psi4_io.set_default_path("/scratch/bdw2292/Psi4-1_16_Index_0-farH_in17")
set freeze_core True
E, wfn = energy('wb97x-d/6-311+G*',return_wfn=True)
oeprop(wfn,"WIBERG_LOWDIN_INDICES")
clean()
--------------------------------------------------------------------------

    Molecular point group: c1

    Geometry (in Angstrom), charge = 0, multiplicity = 1:

       Center              X                  Y                   Z               Mass
    ------------   -----------------  -----------------  -----------------  -----------------
         C           -0.553515891165    -0.080629904281     0.357895950169    12.000000000000
         N            0.689037108835    -0.546260904281     0.676074950169    14.003074004430
         C            1.966834108835    -0.290725904281     0.131055950169    12.000000000000
         C            2.237506108835     0.562360095719    -0.945379049831    12.000000000000
         H            0.704643108835    -1.009185904281     1.590088950169     1.007825032230
         C            3.031706108835    -0.979777904281     0.733074950169    12.000000000000
         C           -1.577936891165    -0.269487904281     1.260826950169    12.000000000000
         N           -2.612333891165    -0.879366904281     3.177365950169    14.003074004430
         C           -3.003900891165     0.004591095719     1.143376950169    12.000000000000
         C           -1.370530891165    -0.856949904281     2.582795950169    12.000000000000
         C           -3.588267891165    -0.363678904281     2.305223950169    12.000000000000
         C           -0.849114891165     0.455040095719    -0.995208049831    12.000000000000
         C           -1.477069891165     1.693085095719    -1.148569049831    12.000000000000
         C           -0.577814891165    -0.325161904281    -2.125548049831    12.000000000000
         C           -1.804249891165     2.160353095719    -2.419943049831    12.000000000000
         C           -0.912543891165     0.139813095719    -3.391800049831    12.000000000000
         C           -1.522204891165     1.385808095719    -3.542349049831    12.000000000000
         C            3.545875108835     0.708637095719    -1.402476049831    12.000000000000
         C            4.331043108835    -0.822772904281     0.270887950169    12.000000000000
         C            4.598188108835     0.019906095719    -0.807259049831    12.000000000000
         H            1.454386108835     1.131722095719    -1.415233049831     1.007825032230
         H            2.828647108835    -1.638936904281     1.567436950169     1.007825032230
         H           -2.770663891165    -1.243734904281     4.096529950169     1.007825032230
         O           -0.299747891165    -1.290408904281     3.097396950169    15.994914619570
         H           -1.693049891165     2.290027095719    -0.273038049831     1.007825032230
         H           -0.099633891165    -1.287621904281    -2.004338049831     1.007825032230
         H           -2.279302891165     3.125327095719    -2.531540049831     1.007825032230
         H           -0.700672891165    -0.468104904281    -4.260505049831     1.007825032230
         H           -1.778834891165     1.747175095719    -4.528734049831     1.007825032230
         H            3.736417108835     1.375335095719    -2.232714049831     1.007825032230
         H            5.134989108835    -1.362160904281     0.752857950169     1.007825032230
         H           -3.503075891165     0.413971095719     0.283573950169     1.007825032230
         H           -4.619857891165    -0.318880904281     2.604102950169     1.007825032230
         H            5.608669108835     0.140659095719    -1.171524049831     1.007825032230

  Charge       = 0
  Multiplicity = 1
  Basis Set: 6-311+G*
    Blend: 6-311+G*
  Basis Set: (6-311+G* AUX)
    Blend: HEAVY-AUG-CC-PVTZ-JKFIT

    Orbital Energies [Eh]
    ---------------------

    Doubly Occupied:

       1A    -19.209294     2A    -14.473406     3A    -14.467992
       4A    -10.381903     5A    -10.367178     6A    -10.342876
       7A    -10.319665     8A    -10.318857     9A    -10.307158
      10A    -10.306401    11A    -10.306140    12A    -10.305329
      13A    -10.304733    14A    -10.292630    15A    -10.292546
      16A    -10.290503    17A    -10.289218    18A    -10.287280
      19A    -10.286013    20A    -10.281439    21A     -1.127006
      22A     -1.071548    23A     -1.051556    24A     -0.982499
      25A     -0.960966    26A     -0.912064    27A     -0.875105
      28A     -0.865952    29A     -0.853997    30A     -0.853117
      31A     -0.814470    32A     -0.771034    33A     -0.727346
      34A     -0.724649    35A     -0.712710    36A     -0.696395
      37A     -0.681122    38A     -0.663504    39A     -0.637966
      40A     -0.616411    41A     -0.601270    42A     -0.583759
      43A     -0.582833    44A     -0.563600    45A     -0.554752
      46A     -0.535355    47A     -0.531432    48A     -0.529021
      49A     -0.523459    50A     -0.515706    51A     -0.514679
      52A     -0.510792    53A     -0.499684    54A     -0.494210
      55A     -0.480703    56A     -0.475286    57A     -0.450568
      58A     -0.449257    59A     -0.444934    60A     -0.436198
      61A     -0.431008    62A     -0.408355    63A     -0.368931
      64A     -0.350013    65A     -0.342713    66A     -0.338785
      67A     -0.332664    68A     -0.307387    69A     -0.259174

  @DF-RKS Final Energy:  -840.87013263480458

   => Energetics <=

    Nuclear Repulsion Energy =           1420.8560594893820053
    One-Electron Energy =               -3960.3642359927707730
    Two-Electron Energy =                1781.3488818547859864
    DFT Exchange-Correlation Energy =     -82.6866419631177507
    Empirical Dispersion Energy =          -0.0241960230840356
    VV10 Nonlocal Energy =                  0.0000000000000000
    Total Energy =                       -840.8701326348045768

  Dipole Moment: [D]
     X:    -1.7820      Y:     1.2371      Z:    -2.5559     Total:     3.3524

*** Psi4 exiting successfully. Buy a developer a beer!
