                               Psi4 1.5 release

  ==> Input File <==

--------------------------------------------------------------------------
molecule {
0 1
 C   -0.559720   -0.135101    0.337667
 N    0.599276   -0.908687    0.335652
 C    1.880399   -0.686985   -0.231720
 C    2.652295   -1.803182   -0.642585
 H    0.625306   -1.565094    1.138446
 C    2.447139    0.611104   -0.316556
 C   -1.555640   -0.499812    1.257669
 N   -2.474324   -1.295951    3.182445
 C   -2.997179   -0.424566    1.170348
 C   -1.261252   -1.139507    2.558386
 C   -3.511090   -0.880575    2.345032
 C   -0.791738    0.932078   -0.697680
 C   -1.723201    1.982113   -0.455732
 C   -0.228366    0.840089   -2.004703
 C   -2.021737    2.927578   -1.445496
 C   -0.526240    1.792991   -2.988062
 C   -1.420226    2.844814   -2.714975
 C    3.936271   -1.617532   -1.172806
 C    3.732567    0.785607   -0.847653
 C    4.484978   -0.323837   -1.284337
 H    2.243397   -2.812120   -0.554181
 H    1.886860    1.481333    0.030258
 H   -2.555686   -1.689166    4.108691
 O   -0.151076   -1.511403    3.008092
 H   -2.202187    2.069519    0.520715
 H    0.436080    0.015138   -2.263127
 H   -2.724582    3.733843   -1.228024
 H   -0.065015    1.713483   -3.974172
 H   -1.650178    3.585618   -3.482946
 H    4.509918   -2.486290   -1.500890
 H    4.148703    1.791912   -0.920352
 H   -3.575346   -0.059850    0.332340
 H   -4.539172   -0.959531    2.669790
 H    5.483925   -0.182687   -1.700644
}
set optking {
  frozen_dihedral = ("
    2 1 12 13
    7 1 2 3
    1 2 3 4
  ")
}
set {
  geom_maxiter 400
  g_convergence GAU_LOOSE
  dynamic_level 1
}
memory 8.166666666666666GB
set_num_threads(2)
psi4_io.set_default_path("/scratch/bdw2292/Psi4-1_16_Index_0-farH_in17")
for _ in range(1):
  try:
    set opt_coordinates both
    optimize('wb97x-d/6-311G')
    break
  except OptimizationConvergenceError:
    break
  else:
    try:
      set opt_coordinates cartesian
      optimize('wb97x-d/6-311G')
      break
    except OptimizationConvergenceError:
      pass
clean()
--------------------------------------------------------------------------

    Molecular point group: c1
  Charge       = 0
  Multiplicity = 1
  Basis Set: 6-311G
    Blend: 6-311G
  Basis Set: (6-311G AUX)
    Blend: CC-PVTZ-JKFIT
  @DF-RKS Final Energy:  -840.63351767351116
    Total Energy =                       -840.6335176735111645
    Molecular point group: c1
  Basis Set: 6-311G
    Blend: 6-311G
  Basis Set: (6-311G AUX)
    Blend: CC-PVTZ-JKFIT
  Basis Set: 6-311G
    Blend: 6-311G
  Basis Set: (6-311G AUX)
    Blend: CC-PVTZ-JKFIT
  @DF-RKS Final Energy:  -840.64451294176661
    Total Energy =                       -840.6445129417666067
  Basis Set: 6-311G
    Blend: 6-311G
  Basis Set: (6-311G AUX)
    Blend: CC-PVTZ-JKFIT
  Basis Set: 6-311G
    Blend: 6-311G
  @DF-RKS Final Energy:  -840.64727545281789
    Total Energy =                       -840.6472754528177802
  @DF-RKS Final Energy:  -840.64924748417741
    Total Energy =                       -840.6492474841774083
  @DF-RKS Final Energy:  -840.64949974851834
    Total Energy =                       -840.6494997485182239
  @DF-RKS Final Energy:  -840.64986706149682
    Total Energy =                       -840.6498670614969342
  Basis Set: (6-311G AUX)
    Blend: CC-PVTZ-JKFIT
  Basis Set: 6-311G
    Blend: 6-311G
  Basis Set: (6-311G AUX)
    Blend: CC-PVTZ-JKFIT
  @DF-RKS Final Energy:  -840.64993431232290
    Total Energy =                       -840.6499343123227845
  Basis Set: 6-311G
    Blend: 6-311G
  Basis Set: (6-311G AUX)
    Blend: CC-PVTZ-JKFIT
  Charge       = 0
  Multiplicity = 1
  Basis Set: 6-311G
    Blend: 6-311G
  Basis Set: (6-311G AUX)
    Blend: CC-PVTZ-JKFIT

    Orbital Energies [Eh]
    ---------------------

    Doubly Occupied:

       1A    -19.208240     2A    -14.468118     3A    -14.467664
       4A    -10.388562     5A    -10.372272     6A    -10.344068
       7A    -10.322167     8A    -10.320419     9A    -10.305986
      10A    -10.305061    11A    -10.304862    12A    -10.303593
      13A    -10.302489    14A    -10.297956    15A    -10.297717
      16A    -10.296047    17A    -10.295873    18A    -10.293195
      19A    -10.292886    20A    -10.282532    21A     -1.140110
      22A     -1.072701    23A     -1.058653    24A     -0.983319
      25A     -0.968086    26A     -0.912450    27A     -0.876617
      28A     -0.865665    29A     -0.859740    30A     -0.858404
      31A     -0.818766    32A     -0.772632    33A     -0.730509
      34A     -0.725056    35A     -0.715181    36A     -0.697133
      37A     -0.684488    38A     -0.667524    39A     -0.640458
      40A     -0.618879    41A     -0.601326    42A     -0.587113
      43A     -0.582480    44A     -0.563954    45A     -0.556959
      46A     -0.542704    47A     -0.537107    48A     -0.530210
      49A     -0.525891    50A     -0.520350    51A     -0.515654
      52A     -0.511864    53A     -0.498635    54A     -0.484270
      55A     -0.479935    56A     -0.476477    57A     -0.451425
      58A     -0.448760    59A     -0.445011    60A     -0.437624
      61A     -0.430773    62A     -0.406079    63A     -0.366908
      64A     -0.347092    65A     -0.341470    66A     -0.335884
      67A     -0.331606    68A     -0.306543    69A     -0.257366

  @DF-RKS Final Energy:  -840.64997877766939

   => Energetics <=

    Nuclear Repulsion Energy =           1425.1281117369887852
    One-Electron Energy =               -3968.2545094490833435
    Two-Electron Energy =                1785.1758616952652119
    DFT Exchange-Correlation Energy =     -82.6752594562411502
    Empirical Dispersion Energy =          -0.0241833045989789
    VV10 Nonlocal Energy =                  0.0000000000000000
    Total Energy =                       -840.6499787776692756

  Dipole Moment: [D]
     X:    -1.4771      Y:     1.8890      Z:    -2.1638     Total:     3.2299

    Molecular point group: c1
  Basis Set: 6-311G
    Blend: 6-311G
  Basis Set: (6-311G AUX)
    Blend: CC-PVTZ-JKFIT

  -Total Gradient:
     Atom            X                  Y                   Z
    ------   -----------------  -----------------  -----------------
       1        0.004903892776     0.010897838732     0.007436030800
       2       -0.004481916899    -0.007598541697    -0.003155883881
       3       -0.001227860254    -0.001145334180    -0.002654812862
       4        0.000320345784     0.000086003852     0.000587585810
       5       -0.000035694493     0.000162191253    -0.000189684638
       6       -0.000046578750    -0.000034007297     0.000038735124
       7       -0.001002187389    -0.001598093625    -0.001417145297
       8       -0.000684113891     0.000247843893    -0.000038929247
       9       -0.000201703615     0.000025291335    -0.000053981844
      10        0.001375565692    -0.000604173051     0.000004970413
      11        0.000055179774    -0.000287192870     0.000331059591
      12        0.010078884296     0.006017907687     0.002322805800
      13       -0.008363011891    -0.006670890677    -0.003170315949
      14        0.000002100764     0.000025226659     0.000028614125
      15       -0.000064063391    -0.000075114618    -0.000012207021
      16       -0.000008060920    -0.000011828611     0.000066961723
      17       -0.000019284206     0.000011887606     0.000046778463
      18        0.000009132189     0.000041557577     0.000025523644
      19        0.000006908860    -0.000037901884    -0.000059839922
      20        0.000003632805     0.000025733689    -0.000024761717
      21       -0.000005244609     0.000014220607    -0.000017939757
      22        0.000020509276    -0.000029815914    -0.000022959410
      23       -0.000014656236    -0.000032323180     0.000035477297
      24       -0.000669345186     0.000252361097    -0.000039692191
      25        0.000142866109     0.000126370031    -0.000047534827
      26       -0.000024922631    -0.000006804620    -0.000018021318
      27        0.000036332317     0.000026851457     0.000045011077
      28       -0.000007660748    -0.000009921375    -0.000003282239
      29        0.000004824630     0.000025700001     0.000021214964
      30       -0.000007485779     0.000021696512    -0.000031403758
      31       -0.000006658413    -0.000004436510    -0.000015355766
      32       -0.000130277535    -0.000164910851     0.000093550556
      33       -0.000029321992     0.000024576074    -0.000008070502
      34       -0.000026792735     0.000001359544    -0.000004404588

  **** Optimization is complete! (in 8 steps) ****
    Final optimized geometry and variables:
    Molecular point group: c1

    Geometry (in Angstrom), charge = 0, multiplicity = 1:

    C           -0.512019482101    -0.070304261828     0.440310056499
    N            0.630223551048    -0.822161067214     0.458578449241
    C            1.872447189951    -0.558248714003    -0.168459137375
    C            2.653783943876    -1.649671896024    -0.558169203064
    H            0.643468816412    -1.533022736857     1.195960156838
    C            2.359322218832     0.739384660573    -0.352283672543
    C           -1.486507116583    -0.378938025618     1.377672637618
    N           -2.403047615572    -1.393234587379     3.190072315158
    C           -2.886742360734     0.014628774422     1.504706828845
    C           -1.232023705473    -1.324676872454     2.468111359028
    C           -3.395947094154    -0.601847147459     2.594646148282
    C           -0.779207512378     0.826910305543    -0.716903786893
    C           -1.671746506426     1.901079840537    -0.605937299771
    C           -0.317035081646     0.478701317228    -1.996592995904
    C           -2.041100531898     2.643504185778    -1.723745981322
    C           -0.690287137574     1.217187475303    -3.112767778656
    C           -1.551265738888     2.305240190207    -2.981853596237
    C            3.899081756900    -1.444304374613    -1.144512404402
    C            3.596441201026     0.936852305605    -0.956874043552
    C            4.371730151963    -0.150729962843    -1.356377884761
    H            2.273559165964    -2.650846777868    -0.405636979583
    H            1.773338321566     1.584793588244    -0.022332160322
    H           -2.510349011100    -1.979613547372     3.994599342820
    O           -0.188793672557    -1.993928623439     2.719312713107
    H           -2.025598191427     2.199870185989     0.369369716694
    H            0.321965813792    -0.381744339639    -2.123152333681
    H           -2.710010654224     3.485315074577    -1.608840710692
    H           -0.317171998311     0.934034188317    -4.087258610067
    H           -1.840497920507     2.878845206075    -3.851727256654
    H            4.496267683859    -2.295785473671    -1.440736160028
    H            3.962089481378     1.944319822145    -1.101311434569
    H           -3.447231351321     0.638091368303     0.834362197495
    H           -4.390335560845    -0.568060156459     3.001481771307
    H            5.335891120374     0.008287658521    -1.818634917664

*** Psi4 exiting successfully. Buy a developer a beer!
