                               Psi4 1.3.2 release

  ==> Input File <==

--------------------------------------------------------------------------
molecule {
0 1
C -0.658856375563 1.548506549944 0.152177589276
C -0.788186994833 0.212719283733 0.407795380857
N 0.121530351948 -0.403215898823 1.287403932432
C 1.474072920541 -0.645758305147 0.905534529819
H -0.288161752325 -1.246470569632 1.686579341666
C 0.330385069003 2.438592056671 0.721658580689
N -0.954796572081 3.634071544464 -0.695455116091
C -1.507109342559 2.359081689956 -0.775849008007
C 0.112935650704 3.671538913707 0.198743568916
C -1.871559829657 -0.650599414364 -0.092061434610
C -3.221690415976 -0.314066784683 0.068308554205
C -1.528115595697 -1.892630444093 -0.649975050380
C -4.211931463143 -1.195812417666 -0.354682020398
C -2.524165877123 -2.763383684960 -1.085539951866
C -3.868010811876 -2.419581977260 -0.932855043481
C 2.308230392462 -1.303776493641 1.816423833694
C 2.013617807646 -0.209582910553 -0.309007555292
C 3.633978210782 -1.576411670705 1.497463946051
C 3.345571589701 -0.473891862193 -0.617101072715
C 4.182929811180 -1.140523070501 0.284923839229
H -1.335704263311 4.416019615013 -1.210963464067
O -2.467195960131 2.051350549461 -1.480533430697
H -3.485302505575 0.639093947502 0.515878919165
H -0.477904955780 -2.153485376052 -0.769625268177
H -5.258426304730 -0.931014605105 -0.226705791572
H -2.251780817937 -3.714384230604 -1.536550052321
H -4.645894441580 -3.102479851585 -1.265063289000
H 1.904914564143 -1.624243306258 2.775312693186
H 1.386537171127 0.306204310387 -1.029764270165
H 4.261225349291 -2.101879854564 2.215531317232
H 3.746292875241 -0.139267591384 -1.572541841271
N 5.506736850599 -1.463271161480 -0.065859052343
H 1.078216168126 2.172502156939 1.454816391895
H 0.630385247985 4.602647297003 0.392758441157
H 6.109683648317 -1.589206426215 0.741081555098
H 5.923314360062 -0.788743985455 -0.699628528801
}
memory 8.333333333333334GB
set_num_threads(1)
psi4_io.set_default_path("/scratch/bdw2292/Psi4-7_1_Index_0_GrowFragment_0-farH_in17")
set maxiter 500
set freeze_core True
set PROPERTIES_ORIGIN ["COM"]
set cubeprop_tasks ['esp']
E, wfn = properties('mp2/aug-cc-pVTZ',properties=['dipole'],return_wfn=True)
cubeprop(wfn)
fchk(wfn, "7_1_Index_0_GrowFragment_0-esp.fchk")
oeprop(wfn,"GRID_ESP","WIBERG_LOWDIN_INDICES","MULLIKEN_CHARGES")
clean()
--------------------------------------------------------------------------

    Molecular point group: c1
  Charge       = 0
  Multiplicity = 1
  Basis Set: AUG-CC-PVTZ
    Blend: AUG-CC-PVTZ
  Basis Set: (AUG-CC-PVTZ AUX)
    Blend: AUG-CC-PVTZ-JKFIT

    Orbital Energies [Eh]
    ---------------------

    Doubly Occupied:

       1A    -20.513383     2A    -15.592419     3A    -15.584510
       4A    -15.566942     5A    -11.349421     6A    -11.305159
       7A    -11.279814     8A    -11.275704     9A    -11.275299
      10A    -11.246672    11A    -11.241934    12A    -11.239512
      13A    -11.239315    14A    -11.238349    15A    -11.236089
      16A    -11.236038    17A    -11.235210    18A    -11.234976
      19A    -11.233496    20A    -11.233260    21A    -11.222909
      22A     -1.368235    23A     -1.270088    24A     -1.261392
      25A     -1.222151    26A     -1.157269    27A     -1.125579
      28A     -1.076985    29A     -1.035404    30A     -1.019616
      31A     -1.015965    32A     -0.985851    33A     -0.968642
      34A     -0.894821    35A     -0.847061    36A     -0.833206
      37A     -0.822304    38A     -0.811963    39A     -0.793230
      40A     -0.741843    41A     -0.715878    42A     -0.708549
      43A     -0.699206    44A     -0.684956    45A     -0.674505
      46A     -0.653298    47A     -0.635432    48A     -0.619580
      49A     -0.614356    50A     -0.606873    51A     -0.599001
      52A     -0.595856    53A     -0.590802    54A     -0.587802
      55A     -0.585664    56A     -0.578027    57A     -0.561130
      58A     -0.549235    59A     -0.537253    60A     -0.510368
      61A     -0.505258    62A     -0.499063    63A     -0.493982
      64A     -0.488739    65A     -0.465721    66A     -0.437794
      67A     -0.417622    68A     -0.392966    69A     -0.347118
      70A     -0.339594    71A     -0.335050    72A     -0.291489
      73A     -0.268011

  @DF-RHF Final Energy:  -890.98421080067362

   => Energetics <=

    Nuclear Repulsion Energy =           1544.8836619692237946
    One-Electron Energy =               -4280.8913628129394056
    Two-Electron Energy =                1845.0234900430421021
    Total Energy =                       -890.9842108006735089
  Basis Set: (AUG-CC-PVTZ AUX)
    Blend: AUG-CC-PVTZ-RI
    Molecular point group: c1

    Geometry (in Angstrom), charge = 0, multiplicity = 1:

       Center              X                  Y                   Z               Mass
    ------------   -----------------  -----------------  -----------------  -----------------
         C           -0.658856375563     1.548506549944     0.152177589276    12.000000000000
         C           -0.788186994833     0.212719283733     0.407795380857    12.000000000000
         N            0.121530351948    -0.403215898823     1.287403932432    14.003074004430
         C            1.474072920541    -0.645758305147     0.905534529819    12.000000000000
         H           -0.288161752325    -1.246470569632     1.686579341666     1.007825032230
         C            0.330385069003     2.438592056671     0.721658580689    12.000000000000
         N           -0.954796572081     3.634071544464    -0.695455116091    14.003074004430
         C           -1.507109342559     2.359081689956    -0.775849008007    12.000000000000
         C            0.112935650704     3.671538913707     0.198743568916    12.000000000000
         C           -1.871559829657    -0.650599414364    -0.092061434610    12.000000000000
         C           -3.221690415976    -0.314066784683     0.068308554205    12.000000000000
         C           -1.528115595697    -1.892630444093    -0.649975050380    12.000000000000
         C           -4.211931463143    -1.195812417666    -0.354682020398    12.000000000000
         C           -2.524165877123    -2.763383684960    -1.085539951866    12.000000000000
         C           -3.868010811876    -2.419581977260    -0.932855043481    12.000000000000
         C            2.308230392462    -1.303776493641     1.816423833694    12.000000000000
         C            2.013617807646    -0.209582910553    -0.309007555292    12.000000000000
         C            3.633978210782    -1.576411670705     1.497463946051    12.000000000000
         C            3.345571589701    -0.473891862193    -0.617101072715    12.000000000000
         C            4.182929811180    -1.140523070501     0.284923839229    12.000000000000
         H           -1.335704263311     4.416019615013    -1.210963464067     1.007825032230
         O           -2.467195960131     2.051350549461    -1.480533430697    15.994914619570
         H           -3.485302505575     0.639093947502     0.515878919165     1.007825032230
         H           -0.477904955780    -2.153485376052    -0.769625268177     1.007825032230
         H           -5.258426304730    -0.931014605105    -0.226705791572     1.007825032230
         H           -2.251780817937    -3.714384230604    -1.536550052321     1.007825032230
         H           -4.645894441580    -3.102479851585    -1.265063289000     1.007825032230
         H            1.904914564143    -1.624243306258     2.775312693186     1.007825032230
         H            1.386537171127     0.306204310387    -1.029764270165     1.007825032230
         H            4.261225349291    -2.101879854564     2.215531317232     1.007825032230
         H            3.746292875241    -0.139267591384    -1.572541841271     1.007825032230
         N            5.506736850599    -1.463271161480    -0.065859052343    14.003074004430
         H            1.078216168126     2.172502156939     1.454816391895     1.007825032230
         H            0.630385247985     4.602647297003     0.392758441157     1.007825032230
         H            6.109683648317    -1.589206426215     0.741081555098     1.007825032230
         H            5.923314360062    -0.788743985455    -0.699628528801     1.007825032230

  Basis Set: AUG-CC-PVTZ
    Blend: AUG-CC-PVTZ
  Basis Set: (AUG-CC-PVTZ AUX)
    Blend: AUG-CC-PVTZ-JKFIT
	 Reference Energy          =    -890.9842108006736225 [Eh]
	 Singles Energy            =      -0.0000000000000000 [Eh]
	 Same-Spin Energy          =      -0.9303212064914563 [Eh]
	 Opposite-Spin Energy      =      -2.6555602709845174 [Eh]
	 Correlation Energy        =      -3.5858814774759740 [Eh]
	 Total Energy              =    -894.5700922781495592 [Eh]

	 ================> DF-SCS-MP2 Energies <==================
	-----------------------------------------------------------
	 SCS Same-Spin Scale       =       0.3333333333333333 [-]
	 SCS Opposite-Spin Scale   =       1.2000000000000000 [-]
	 SCS Same-Spin Energy      =      -0.3101070688304854 [Eh]
	 SCS Opposite-Spin Energy  =      -3.1866723251814206 [Eh]
	 SCS Correlation Energy    =      -3.4967793940119059 [Eh]
	 SCS Total Energy          =    -894.4809901946855462 [Eh]
	-----------------------------------------------------------

  Dipole Moment: [D]
     X:     2.8347      Y:     0.6735      Z:     1.5930     Total:     3.3207

  Basis Set: AUG-CC-PVTZ
    Blend: AUG-CC-PVTZ

  Mulliken Charges: (a.u.)
   Center  Symbol    Alpha    Beta     Spin     Total
       1     C     2.36984  2.36984  0.00000  1.26033
       2     C     2.83277  2.83277  0.00000  0.33446
       3     N     3.91311  3.91311  0.00000 -0.82622
       4     C     2.14286  2.14286  0.00000  1.71429
       5     H     0.56785  0.56785  0.00000 -0.13570
       6     C     3.28506  3.28506  0.00000 -0.57013
       7     N     3.51702  3.51702  0.00000 -0.03403
       8     C     2.97049  2.97049  0.00000  0.05903
       9     C     3.54156  3.54156  0.00000 -1.08312
      10     C     1.97344  1.97344  0.00000  2.05312
      11     C     3.56512  3.56512  0.00000 -1.13024
      12     C     3.34507  3.34507  0.00000 -0.69014
      13     C     3.43053  3.43053  0.00000 -0.86106
      14     C     3.49701  3.49701  0.00000 -0.99401
      15     C     2.99149  2.99149  0.00000  0.01702
      16     C     3.74307  3.74307  0.00000 -1.48613
      17     C     2.96194  2.96194  0.00000  0.07613
      18     C     3.25977  3.25977  0.00000 -0.51954
      19     C     3.50089  3.50089  0.00000 -1.00178
      20     C     2.29708  2.29708  0.00000  1.40584
      21     H     0.44012  0.44012  0.00000  0.11976
      22     O     4.45920  4.45920  0.00000 -0.91839
      23     H     0.42492  0.42492  0.00000  0.15015
      24     H     0.43756  0.43756  0.00000  0.12487
      25     H     0.33362  0.33362  0.00000  0.33276
      26     H     0.28497  0.28497  0.00000  0.43007
      27     H     0.20834  0.20834  0.00000  0.58332
      28     H     0.33013  0.33013  0.00000  0.33974
      29     H     0.38438  0.38438  0.00000  0.23124
      30     H     0.34635  0.34635  0.00000  0.30730
      31     H     0.38369  0.38369  0.00000  0.23261
      32     N     3.92147  3.92147  0.00000 -0.84294
      33     H     0.23004  0.23004  0.00000  0.53991
      34     H     0.17403  0.17403  0.00000  0.65195
      35     H     0.47387  0.47387  0.00000  0.05225
      36     H     0.46137  0.46137  0.00000  0.07726

   Total alpha = 73.00000, Total beta = 73.00000, Total charge = -0.00000

*** Psi4 exiting successfully. Buy a developer a beer!
