                               Psi4 1.3.2 release

  ==> Input File <==

--------------------------------------------------------------------------
molecule {
0 1
 C   -0.927700    1.658700   -0.245300
 C   -0.995000    0.409400    0.142200
 N   -0.029900   -0.110700    1.021800
 C    1.312400   -0.401200    0.671700
 H   -0.370800   -0.286100    2.014800
 C    0.117300    2.598500    0.189300
 N   -1.174200    3.739700   -1.203700
 C   -1.752000    2.432800   -1.151300
 C   -0.043000    3.778800   -0.369700
 C   -2.074200   -0.472500   -0.255600
 C   -3.413300   -0.155200   -0.113500
 C   -1.804600   -1.707700   -0.844400
 C   -4.423100   -0.993600   -0.522900
 C   -2.789900   -2.578100   -1.268700
 C   -4.090700   -2.194100   -1.094900
 C    2.169400   -0.960800    1.629000
 C    1.840200   -0.163500   -0.569800
 C    3.483300   -1.264400    1.352000
 C    3.176700   -0.473400   -0.848600
 C    4.016900   -1.024300    0.096500
 H   -1.515800    4.558100   -1.762200
 O   -2.748500    2.043100   -1.756600
 H   -3.709200    0.760100    0.346700
 H   -0.748300   -1.945000   -0.948900
 H   -5.460500   -0.724900   -0.401900
 H   -2.522200   -3.528400   -1.720100
 H   -4.898900   -2.855400   -1.416200
 H    1.759900   -1.156200    2.626700
 H    1.203800    0.271800   -1.335800
 H    4.148100   -1.697300    2.086500
 H    3.572300   -0.276500   -1.834600
 N    5.376300   -1.334100   -0.202900
 H    0.924500    2.339400    0.887800
 H    0.631100    4.626200   -0.177600
 H    6.150500   -1.338900    0.488900
 H    5.609100   -1.574000   -1.186000
}
set {
  geom_maxiter 400
  g_convergence GAU
  dynamic_level 1
}
set optking {
  frozen_dihedral = ("
    8 1 2 3
, 1 2 10 11
, 4 3 2 1
, 2 3 4 16
, 35 32 20 18
  ")
}
memory 8.333333333333334GB
set_num_threads(1)
psi4_io.set_default_path("/scratch/bdw2292/Psi4-7_1_Index_0_GrowFragment_0-farH_in17")
for _ in range(1):
  try:
    set opt_coordinates both
    optimize('mp2/6-31G*')
    break
  except OptimizationConvergenceError:
    break
  else:
    try:
      set opt_coordinates cartesian
      optimize('mp2/6-31G*')
      break
    except OptimizationConvergenceError:
      pass
clean()
--------------------------------------------------------------------------

    Molecular point group: c1
  Charge       = 0
  Multiplicity = 1
  Basis Set: 6-31G*
    Blend: 6-31G*
  Basis Set: (6-31G* AUX)
    Blend: CC-PVDZ-JKFIT
  @DF-RHF Final Energy:  -890.63154787322287
    Total Energy =                       -890.6315478732228712
  Basis Set: (6-31G* AUX)
    Blend: CC-PVDZ-RI
    Molecular point group: c1
  Basis Set: 6-31G*
    Blend: 6-31G*
  Basis Set: (6-31G* AUX)
    Blend: CC-PVDZ-JKFIT
  Basis Set: (6-31G* AUX)
    Blend: CC-PVDZ-JKFIT
	 Reference Energy          =    -890.6315478732228712 [Eh]
	 Singles Energy            =      -0.0000000000000000 [Eh]
	 Same-Spin Energy          =      -0.7932923759699868 [Eh]
	 Opposite-Spin Energy      =      -2.1252512653545717 [Eh]
	 Correlation Energy        =      -2.9185436413245585 [Eh]
	 Total Energy              =    -893.5500915145473755 [Eh]
	 SCS Total Energy          =    -893.4462801836383505 [Eh]
  @DF-RHF Final Energy:  -890.65818103560014
    Total Energy =                       -890.6581810356001370
  @DF-RHF Final Energy:  -890.66172594289174
    Total Energy =                       -890.6617259428917350
  @DF-RHF Final Energy:  -890.66424811720310
    Total Energy =                       -890.6642481172032149
  @DF-RHF Final Energy:  -890.66199225468961
    Total Energy =                       -890.6619922546894941
  @DF-RHF Final Energy:  -890.67011507103268
    Total Energy =                       -890.6701150710325692
  @DF-RHF Final Energy:  -890.67171409660091
    Total Energy =                       -890.6717140966009083
  @DF-RHF Final Energy:  -890.67222904815901
    Total Energy =                       -890.6722290481591244
  @DF-RHF Final Energy:  -890.67148801929932
    Total Energy =                       -890.6714880192992041
  @DF-RHF Final Energy:  -890.67204618828555
    Total Energy =                       -890.6720461882855489
  @DF-RHF Final Energy:  -890.67205494997552
    Total Energy =                       -890.6720549499755180
  @DF-RHF Final Energy:  -890.67204618349342
    Total Energy =                       -890.6720461834934213
  @DF-RHF Final Energy:  -890.67200175918879
    Total Energy =                       -890.6720017591887881
  @DF-RHF Final Energy:  -890.67203322409352
    Total Energy =                       -890.6720332240936386
  @DF-RHF Final Energy:  -890.67203835187479
    Total Energy =                       -890.6720383518747894
  Charge       = 0
  Multiplicity = 1
  Basis Set: 6-31G*
    Blend: 6-31G*
  Basis Set: (6-31G* AUX)
    Blend: CC-PVDZ-JKFIT

    Orbital Energies [Eh]
    ---------------------

    Doubly Occupied:

       1A    -20.515348     2A    -15.591783     3A    -15.584811
       4A    -15.566612     5A    -11.346821     6A    -11.300775
       7A    -11.276685     8A    -11.273237     9A    -11.273100
      10A    -11.243129    11A    -11.239370    12A    -11.237398
      13A    -11.237263    14A    -11.235726    15A    -11.234023
      16A    -11.233588    17A    -11.233278    18A    -11.231807
      19A    -11.231206    20A    -11.230995    21A    -11.218794
      22A     -1.361643    23A     -1.264738    24A     -1.255623
      25A     -1.217525    26A     -1.151709    27A     -1.120507
      28A     -1.071155    29A     -1.029833    30A     -1.014967
      31A     -1.010737    32A     -0.980790    33A     -0.963385
      34A     -0.889483    35A     -0.842180    36A     -0.827712
      37A     -0.816850    38A     -0.806882    39A     -0.787320
      40A     -0.736346    41A     -0.710702    42A     -0.703202
      43A     -0.692717    44A     -0.680211    45A     -0.669904
      46A     -0.648541    47A     -0.629069    48A     -0.613411
      49A     -0.609567    50A     -0.601487    51A     -0.592313
      52A     -0.589204    53A     -0.585483    54A     -0.582097
      55A     -0.579843    56A     -0.571720    57A     -0.554709
      58A     -0.542957    59A     -0.531230    60A     -0.504116
      61A     -0.498657    62A     -0.494194    63A     -0.488425
      64A     -0.482759    65A     -0.456174    66A     -0.430361
      67A     -0.408074    68A     -0.385067    69A     -0.340663
      70A     -0.333077    71A     -0.328260    72A     -0.284018
      73A     -0.259843

  @DF-RHF Final Energy:  -890.67199315337166

   => Energetics <=

    Nuclear Repulsion Energy =           1544.8836619692322074
    One-Electron Energy =               -4280.9769381460992008
    Two-Electron Energy =                1845.4212830234955618
    Total Energy =                       -890.6719931533716590

  Dipole Moment: [D]
     X:     3.1393      Y:     0.5715      Z:     2.0755     Total:     3.8065

  Basis Set: (6-31G* AUX)
    Blend: CC-PVDZ-RI
    Molecular point group: c1
  Basis Set: 6-31G*
    Blend: 6-31G*
  Basis Set: (6-31G* AUX)
    Blend: CC-PVDZ-JKFIT
  Basis Set: (6-31G* AUX)
    Blend: CC-PVDZ-JKFIT
	 Reference Energy          =    -890.6719931533716590 [Eh]
	 Singles Energy            =      -0.0000000000000000 [Eh]
	 Same-Spin Energy          =      -0.7946149664787544 [Eh]
	 Opposite-Spin Energy      =      -2.1286932717677054 [Eh]
	 Correlation Energy        =      -2.9233082382464599 [Eh]
	 Total Energy              =    -893.5953013916181362 [Eh]

	 ================> DF-SCS-MP2 Energies <==================
	-----------------------------------------------------------
	 SCS Same-Spin Scale       =       0.3333333333333333 [-]
	 SCS Opposite-Spin Scale   =       1.2000000000000000 [-]
	 SCS Same-Spin Energy      =      -0.2648716554929181 [Eh]
	 SCS Opposite-Spin Energy  =      -2.5544319261212465 [Eh]
	 SCS Correlation Energy    =      -2.8193035816141645 [Eh]
	 SCS Total Energy          =    -893.4912967349857809 [Eh]
	-----------------------------------------------------------

  -Total Gradient:
     Atom            X                  Y                   Z
    ------   -----------------  -----------------  -----------------
       1        0.000021189218     0.000089081014    -0.000033844918
       2        0.003579097050    -0.003627535412    -0.005107169031
       3       -0.001247887133     0.006875608515     0.006103387671
       4       -0.001301053334    -0.004442762954    -0.001771069637
       5        0.000036578494     0.000063671916    -0.000021043506
       6        0.000023198945    -0.000003582803    -0.000005182730
       7       -0.000002367648    -0.000024636841     0.000035199349
       8       -0.001705690214     0.000579188489     0.002026384225
       9       -0.000049340715     0.000009602318    -0.000015423133
      10        0.000494386061     0.000898667605    -0.002658671308
      11       -0.000022147681    -0.000708518436     0.001303433003
      12        0.000009190946    -0.000006120661    -0.000010055792
      13        0.000014962590    -0.000006063406     0.000004681455
      14        0.000000844709     0.000018990909     0.000014503771
      15       -0.000008346440    -0.000011055378    -0.000007529691
      16        0.000118130185     0.000331622563     0.000154623377
      17        0.000017890778    -0.000030834031    -0.000029190079
      18        0.000111940782     0.000179709444     0.000075441050
      19        0.000014302573     0.000017459599     0.000004298990
      20       -0.000204700560    -0.000356489404    -0.000107473387
      21        0.000025405211    -0.000015897631    -0.000013937533
      22        0.000029583849    -0.000000620551     0.000025475220
      23        0.000002404908    -0.000003750158     0.000000696866
      24       -0.000004206029     0.000000251148     0.000001012031
      25       -0.000003024522     0.000002523675    -0.000001065061
      26       -0.000000957436    -0.000005096683    -0.000003107024
      27        0.000003325105     0.000004893257     0.000001284050
      28       -0.000010728816     0.000005633806    -0.000001264616
      29       -0.000003702480     0.000009081644     0.000005623578
      30       -0.000006454836    -0.000001019072     0.000000739598
      31        0.000002064225    -0.000004903605    -0.000003459750
      32        0.000206923955     0.000514571301    -0.000022453896
      33        0.000007571017    -0.000011267536    -0.000013847835
      34       -0.000015339479     0.000004814536     0.000006909845
      35       -0.000077234974    -0.000274814799     0.000017993621
      36       -0.000055808289    -0.000070402389     0.000044101218

  **** Optimization is complete! (in 4 steps) ****
    Final optimized geometry and variables:
    Molecular point group: c1

    Geometry (in Angstrom), charge = 0, multiplicity = 1:

    C           -0.658856375563     1.548506549944     0.152177589276
    C           -0.788186994833     0.212719283733     0.407795380857
    N            0.121530351948    -0.403215898823     1.287403932432
    C            1.474072920541    -0.645758305147     0.905534529819
    H           -0.288161752325    -1.246470569632     1.686579341666
    C            0.330385069003     2.438592056671     0.721658580689
    N           -0.954796572081     3.634071544464    -0.695455116091
    C           -1.507109342559     2.359081689956    -0.775849008007
    C            0.112935650704     3.671538913707     0.198743568916
    C           -1.871559829657    -0.650599414364    -0.092061434610
    C           -3.221690415976    -0.314066784683     0.068308554205
    C           -1.528115595697    -1.892630444093    -0.649975050380
    C           -4.211931463143    -1.195812417666    -0.354682020398
    C           -2.524165877123    -2.763383684960    -1.085539951866
    C           -3.868010811876    -2.419581977260    -0.932855043481
    C            2.308230392462    -1.303776493641     1.816423833694
    C            2.013617807646    -0.209582910553    -0.309007555292
    C            3.633978210782    -1.576411670705     1.497463946051
    C            3.345571589701    -0.473891862193    -0.617101072715
    C            4.182929811180    -1.140523070501     0.284923839229
    H           -1.335704263311     4.416019615013    -1.210963464067
    O           -2.467195960131     2.051350549461    -1.480533430697
    H           -3.485302505575     0.639093947502     0.515878919165
    H           -0.477904955780    -2.153485376052    -0.769625268177
    H           -5.258426304730    -0.931014605105    -0.226705791572
    H           -2.251780817937    -3.714384230604    -1.536550052321
    H           -4.645894441580    -3.102479851585    -1.265063289000
    H            1.904914564143    -1.624243306258     2.775312693186
    H            1.386537171127     0.306204310387    -1.029764270165
    H            4.261225349291    -2.101879854564     2.215531317232
    H            3.746292875241    -0.139267591384    -1.572541841271
    N            5.506736850599    -1.463271161480    -0.065859052343
    H            1.078216168126     2.172502156939     1.454816391895
    H            0.630385247985     4.602647297003     0.392758441157
    H            6.109683648317    -1.589206426215     0.741081555098
    H            5.923314360062    -0.788743985455    -0.699628528801

*** Psi4 exiting successfully. Buy a developer a beer!
