                               Psi4 1.3.2 release

  ==> Input File <==

--------------------------------------------------------------------------
molecule {
0 1
C          4.10300        0.54460        1.49040
C          3.32760        1.04510        0.55700
N          2.01500        1.48570        1.02620
C          0.81870        0.79670        0.73960
H          2.04670        2.35900        1.59500
C          5.45820        0.01300        1.45740
N          4.75960       -0.28370        3.57990
C          3.68450        0.32970        2.90270
C          5.83990       -0.47630        2.69740
C          3.53340        1.16240       -0.86330
C          3.87280        0.15870       -1.73820
C          3.35530        2.44010       -1.39440
C          4.03720        0.37270       -3.08890
C          3.52170        2.63130       -2.72740
C          3.85900        1.63490       -3.60150
C          0.76840       -0.39010        0.07510
C         -0.38080        1.37730        1.15150
C         -0.45250       -0.99130       -0.17810
C         -1.58120        0.75890        0.88810
C         -1.67290       -0.44230        0.21710
H          4.76100       -0.55540        4.58480
O          2.58000        0.63820        3.39650
H          4.01560       -0.83530       -1.35160
H          3.08980        3.27710       -0.76290
H          4.30510       -0.43950       -3.75400
H          3.38170        3.62370       -3.13930
H          3.98460        1.81640       -4.66570
H          1.69470       -0.88110       -0.25600
H         -0.33620        2.31250        1.67300
H         -0.49600       -1.93920       -0.70890
H         -2.48410        1.26410        1.24600
N         -2.88880       -1.10540       -0.07100
H          6.05830        0.00180        0.61790
H          6.74980       -0.90370        2.93090
H         -2.87930       -1.96260       -0.55510
H         -3.74450       -0.70970        0.21260
}
memory 100GB
set_num_threads(12)
psi4_io.set_default_path("/scratch/bdw2292/Psi4-farH_in17")
set maxiter 500
set freeze_core True
set PROPERTIES_ORIGIN ["COM"]
set cubeprop_tasks ['esp']
E, wfn = properties('hf/MINIX',properties=['dipole'],return_wfn=True)
cubeprop(wfn)
fchk(wfn, "farH_in17-esp_frag.fchk")
oeprop(wfn,"WIBERG_LOWDIN_INDICES","MULLIKEN_CHARGES")
clean()
--------------------------------------------------------------------------

    Molecular point group: c1

    Geometry (in Angstrom), charge = 0, multiplicity = 1:

       Center              X                  Y                   Z               Mass
    ------------   -----------------  -----------------  -----------------  -----------------
         C            1.825404433072     0.004678539533     1.134980063370    12.000000000000
         C            1.050004433072     0.505178539533     0.201580063370    12.000000000000
         N           -0.262595566928     0.945778539533     0.670780063370    14.003074004430
         C           -1.458895566928     0.256778539533     0.384180063370    12.000000000000
         H           -0.230895566928     1.819078539533     1.239580063370     1.007825032230
         C            3.180604433072    -0.526921460467     1.101980063370    12.000000000000
         N            2.482004433072    -0.823621460467     3.224480063370    14.003074004430
         C            1.406904433072    -0.210221460467     2.547280063370    12.000000000000
         C            3.562304433072    -1.016221460467     2.341980063370    12.000000000000
         C            1.255804433072     0.622478539533    -1.218719936630    12.000000000000
         C            1.595204433072    -0.381221460467    -2.093619936630    12.000000000000
         C            1.077704433072     1.900178539533    -1.749819936630    12.000000000000
         C            1.759604433072    -0.167221460467    -3.444319936630    12.000000000000
         C            1.244104433072     2.091378539533    -3.082819936630    12.000000000000
         C            1.581404433072     1.094978539533    -3.956919936630    12.000000000000
         C           -1.509195566928    -0.930021460467    -0.280319936630    12.000000000000
         C           -2.658395566928     0.837378539533     0.796080063370    12.000000000000
         C           -2.730095566928    -1.531221460467    -0.533519936630    12.000000000000
         C           -3.858795566928     0.218978539533     0.532680063370    12.000000000000
         C           -3.950495566928    -0.982221460467    -0.138319936630    12.000000000000
         H            2.483404433072    -1.095321460467     4.229380063370     1.007825032230
         O            0.302404433072     0.098278539533     3.041080063370    15.994914619570
         H            1.738004433072    -1.375221460467    -1.707019936630     1.007825032230
         H            0.812204433072     2.737178539533    -1.118319936630     1.007825032230
         H            2.027504433072    -0.979421460467    -4.109419936630     1.007825032230
         H            1.104104433072     3.083778539533    -3.494719936630     1.007825032230
         H            1.707004433072     1.276478539533    -5.021119936630     1.007825032230
         H           -0.582895566928    -1.421021460467    -0.611419936630     1.007825032230
         H           -2.613795566928     1.772578539533     1.317580063370     1.007825032230
         H           -2.773595566928    -2.479121460467    -1.064319936630     1.007825032230
         H           -4.761695566928     0.724178539533     0.890580063370     1.007825032230
         N           -5.166395566928    -1.645321460467    -0.426419936630    14.003074004430
         H            3.780704433072    -0.538121460467     0.262480063370     1.007825032230
         H            4.472204433072    -1.443621460467     2.575480063370     1.007825032230
         H           -5.156895566928    -2.502521460467    -0.910519936630     1.007825032230
         H           -6.022095566928    -1.249621460467    -0.142819936630     1.007825032230

  Charge       = 0
  Multiplicity = 1
  Basis Set: MINIX
    Blend: MINIX
  Basis Set: (MINIX AUX)
    Blend: DEF2-SVP-JKFIT

    Orbital Energies [Eh]
    ---------------------

    Doubly Occupied:

       1A    -20.300303     2A    -15.453237     3A    -15.386695
       4A    -15.375334     5A    -11.316064     6A    -11.241202
       7A    -11.230769     8A    -11.211601     9A    -11.209186
      10A    -11.202511    11A    -11.193230    12A    -11.185260
      13A    -11.184908    14A    -11.183882    15A    -11.182184
      16A    -11.179201    17A    -11.154211    18A    -11.150130
      19A    -11.149410    20A    -11.148133    21A    -11.145508
      22A     -1.363437    23A     -1.253583    24A     -1.225718
      25A     -1.190181    26A     -1.176616    27A     -1.120916
      28A     -1.071692    29A     -1.046014    30A     -1.033962
      31A     -1.003115    32A     -0.994237    33A     -0.957849
      34A     -0.901151    35A     -0.839019    36A     -0.833003
      37A     -0.825455    38A     -0.796554    39A     -0.784927
      40A     -0.747038    41A     -0.709090    42A     -0.697536
      43A     -0.695685    44A     -0.677481    45A     -0.653092
      46A     -0.647697    47A     -0.635002    48A     -0.629027
      49A     -0.609318    50A     -0.603092    51A     -0.594360
      52A     -0.587905    53A     -0.585334    54A     -0.580028
      55A     -0.565540    56A     -0.559011    57A     -0.550313
      58A     -0.536038    59A     -0.534132    60A     -0.515463
      61A     -0.504037    62A     -0.486996    63A     -0.476121
      64A     -0.458843    65A     -0.446328    66A     -0.431342
      67A     -0.400261    68A     -0.370523    69A     -0.362062
      70A     -0.356018    71A     -0.336386    72A     -0.284934
      73A     -0.242865

  @DF-RHF Final Energy:  -884.49419419121352

   => Energetics <=

    Nuclear Repulsion Energy =           1554.5569051191102972
    One-Electron Energy =               -4291.5635926418299277
    Two-Electron Energy =                1852.5124933315059934
    Total Energy =                       -884.4941941912134098

  Dipole Moment: [D]
     X:     2.1733      Y:    -0.5947      Z:    -0.7202     Total:     2.3655

  Basis Set: MINIX
    Blend: MINIX

  Mulliken Charges: (a.u.)
   Center  Symbol    Alpha    Beta     Spin     Total
       1     C     3.02741  3.02741  0.00000 -0.05482
       2     C     2.93595  2.93595  0.00000  0.12809
       3     N     3.69185  3.69185  0.00000 -0.38371
       4     C     2.95021  2.95021  0.00000  0.09958
       5     H     0.37384  0.37384  0.00000  0.25233
       6     C     3.09138  3.09138  0.00000 -0.18276
       7     N     3.70317  3.70317  0.00000 -0.40633
       8     C     2.80624  2.80624  0.00000  0.38752
       9     C     3.00810  3.00810  0.00000 -0.01620
      10     C     3.01486  3.01486  0.00000 -0.02972
      11     C     3.06440  3.06440  0.00000 -0.12880
      12     C     3.05861  3.05861  0.00000 -0.11721
      13     C     3.06922  3.06922  0.00000 -0.13845
      14     C     3.07120  3.07120  0.00000 -0.14240
      15     C     3.06770  3.06770  0.00000 -0.13540
      16     C     3.07996  3.07996  0.00000 -0.15992
      17     C     3.07338  3.07338  0.00000 -0.14677
      18     C     3.07357  3.07357  0.00000 -0.14714
      19     C     3.07680  3.07680  0.00000 -0.15359
      20     C     2.95639  2.95639  0.00000  0.08722
      21     H     0.36024  0.36024  0.00000  0.27951
      22     O     4.19748  4.19748  0.00000 -0.39497
      23     H     0.42819  0.42819  0.00000  0.14361
      24     H     0.42714  0.42714  0.00000  0.14572
      25     H     0.42818  0.42818  0.00000  0.14364
      26     H     0.42961  0.42961  0.00000  0.14077
      27     H     0.42707  0.42707  0.00000  0.14586
      28     H     0.43117  0.43117  0.00000  0.13766
      29     H     0.43332  0.43332  0.00000  0.13336
      30     H     0.43736  0.43736  0.00000  0.12528
      31     H     0.43518  0.43518  0.00000  0.12965
      32     N     3.76045  3.76045  0.00000 -0.52090
      33     H     0.43086  0.43086  0.00000  0.13829
      34     H     0.42039  0.42039  0.00000  0.15921
      35     H     0.37944  0.37944  0.00000  0.24111
      36     H     0.37967  0.37967  0.00000  0.24067

   Total alpha = 73.00000, Total beta = 73.00000, Total charge =  0.00000

*** Psi4 exiting successfully. Buy a developer a beer!
