                               Psi4 1.5 release

  ==> Input File <==

--------------------------------------------------------------------------
molecule {
0 1
 N   -0.077807    0.099858   -0.229213
 C    0.894226    0.807915    0.533891
 C    2.408599    0.886990    0.155827
 N    3.037903    0.202687   -1.002511
 O    0.533473    1.426051    1.536703
 H    2.676140    1.954870    0.076189
 H    2.974724    0.563996    1.048444
 C   -1.476190    0.180231    0.188702
 C   -4.172239    0.416560    1.037730
 C   -3.194521   -0.056351    1.921028
 C   -3.806380    0.793608   -0.259658
 C   -1.857968   -0.166472    1.514308
 C   -2.474642    0.692619   -0.687413
 C    0.173572   -0.564130   -1.531529
 C    4.389597    0.759007   -1.271943
 C    3.213553   -1.251541   -0.704943
 H   -3.471168   -0.342832    2.937233
 H   -4.561579    1.174427   -0.949924
 H   -1.108740   -0.521740    2.224053
 H   -2.218513    1.023580   -1.695779
 H   -0.697898   -0.520888   -2.182059
 H    0.985870   -0.087364   -2.074810
 H    0.397299   -1.618451   -1.376916
 H    4.293259    1.820559   -1.554268
 H    5.051347    0.677659   -0.392502
 H    3.967780   -1.416904    0.083692
 H    2.271158   -1.701353   -0.363538
 H   -5.212139    0.496202    1.360653
 H    4.845228    0.233421   -2.127443
 H    3.526131   -1.773747   -1.624131
}
set optking {
  frozen_dihedral = ("
    1 2 3 4
    2 1 8 12
    8 1 2 3
    2 3 4 15
  ")
}
set {
  geom_maxiter 400
  g_convergence GAU_LOOSE
  dynamic_level 1
}
memory 8.166666666666666GB
set_num_threads(2)
psi4_io.set_default_path("/scratch/bdw2292/Psi4-25_27_Index_0-farH_in17")
for _ in range(1):
  try:
    set opt_coordinates both
    optimize('wb97x-d/6-311G')
    break
  except OptimizationConvergenceError:
    break
  else:
    try:
      set opt_coordinates cartesian
      optimize('wb97x-d/6-311G')
      break
    except OptimizationConvergenceError:
      pass
clean()
--------------------------------------------------------------------------

    Molecular point group: c1
  Charge       = 0
  Multiplicity = 1
  Basis Set: 6-311G
    Blend: 6-311G
  Basis Set: (6-311G AUX)
    Blend: CC-PVTZ-JKFIT
  @DF-RKS Final Energy:  -613.26505334854824
    Total Energy =                       -613.2650533485482356
    Molecular point group: c1
  Basis Set: 6-311G
    Blend: 6-311G
  Basis Set: (6-311G AUX)
    Blend: CC-PVTZ-JKFIT
  Basis Set: 6-311G
    Blend: 6-311G
  Basis Set: (6-311G AUX)
    Blend: CC-PVTZ-JKFIT
  @DF-RKS Final Energy:  -613.27389675038751
    Total Energy =                       -613.2738967503875074
  Basis Set: 6-311G
    Blend: 6-311G
  Basis Set: (6-311G AUX)
    Blend: CC-PVTZ-JKFIT
  Basis Set: 6-311G
    Blend: 6-311G
  @DF-RKS Final Energy:  -613.27463310300345
    Total Energy =                       -613.2746331030034526
  @DF-RKS Final Energy:  -613.27552286897901
    Total Energy =                       -613.2755228689791238
  @DF-RKS Final Energy:  -613.27541561962596
    Total Energy =                       -613.2754156196259601
  @DF-RKS Final Energy:  -613.27552287477442
    Total Energy =                       -613.2755228747743104
  @DF-RKS Final Energy:  -613.27561843584238
    Total Energy =                       -613.2756184358423752
  @DF-RKS Final Energy:  -613.27579275049288
    Total Energy =                       -613.2757927504927693
  @DF-RKS Final Energy:  -613.27588628787430
    Total Energy =                       -613.2758862878743003
  @DF-RKS Final Energy:  -613.27590752287165
    Total Energy =                       -613.2759075228717620
  @DF-RKS Final Energy:  -613.27592683607008
    Total Energy =                       -613.2759268360700844
  @DF-RKS Final Energy:  -613.27595529178870
    Total Energy =                       -613.2759552917885912
  @DF-RKS Final Energy:  -613.27596679600049
    Total Energy =                       -613.2759667960004890
  @DF-RKS Final Energy:  -613.27530304336153
    Total Energy =                       -613.2753030433614185
  Basis Set: (6-311G AUX)
    Blend: CC-PVTZ-JKFIT
  Basis Set: 6-311G
    Blend: 6-311G
  Basis Set: (6-311G AUX)
    Blend: CC-PVTZ-JKFIT
  @DF-RKS Final Energy:  -613.27580074634056
    Total Energy =                       -613.2758007463405647
  Basis Set: 6-311G
    Blend: 6-311G
  Basis Set: (6-311G AUX)
    Blend: CC-PVTZ-JKFIT
  Charge       = 0
  Multiplicity = 1
  Basis Set: 6-311G
    Blend: 6-311G
  Basis Set: (6-311G AUX)
    Blend: CC-PVTZ-JKFIT

    Orbital Energies [Eh]
    ---------------------

    Doubly Occupied:

       1A    -19.206451     2A    -14.479054     3A    -14.448339
       4A    -10.403202     5A    -10.334233     6A    -10.329088
       7A    -10.313745     8A    -10.312006     9A    -10.307830
      10A    -10.292601    11A    -10.290808    12A    -10.288117
      13A    -10.287366    14A    -10.286237    15A     -1.150291
      16A     -1.050423    17A     -1.043114    18A     -0.958946
      19A     -0.859984    20A     -0.853733    21A     -0.837504
      22A     -0.822001    23A     -0.805520    24A     -0.732321
      25A     -0.713859    26A     -0.703454    27A     -0.655548
      28A     -0.607021    29A     -0.597208    30A     -0.585095
      31A     -0.577126    32A     -0.566655    33A     -0.554619
      34A     -0.533256    35A     -0.531806    36A     -0.521371
      37A     -0.509773    38A     -0.504697    39A     -0.493563
      40A     -0.483819    41A     -0.474898    42A     -0.467657
      43A     -0.462524    44A     -0.459189    45A     -0.441168
      46A     -0.435868    47A     -0.429083    48A     -0.358225
      49A     -0.339881    50A     -0.323476    51A     -0.308546
      52A     -0.299347

  @DF-RKS Final Energy:  -613.27596680964302

   => Energetics <=

    Nuclear Repulsion Energy =            890.3437939295614569
    One-Electron Energy =               -2596.9192373979685726
    Two-Electron Energy =                1153.8360826022185393
    DFT Exchange-Correlation Energy =     -60.5160755780068271
    Empirical Dispersion Energy =          -0.0205303654473335
    VV10 Nonlocal Energy =                  0.0000000000000000
    Total Energy =                       -613.2759668096429095

  Dipole Moment: [D]
     X:     1.6139      Y:    -2.0162      Z:    -2.7066     Total:     3.7411

    Molecular point group: c1
  Basis Set: 6-311G
    Blend: 6-311G
  Basis Set: (6-311G AUX)
    Blend: CC-PVTZ-JKFIT

  -Total Gradient:
     Atom            X                  Y                   Z
    ------   -----------------  -----------------  -----------------
       1        0.002817403253    -0.010439667019     0.009665415124
       2       -0.000830069798     0.003296281918    -0.002994548994
       3        0.001606525369    -0.004063712166     0.003961542980
       4       -0.004207750987     0.009700250573    -0.009202353328
       5        0.000018758391     0.000079523735     0.000016549199
       6       -0.000028459750     0.000018950955    -0.000001486188
       7       -0.000043758016     0.000013848816     0.000022537349
       8       -0.001712584205     0.002455205965    -0.005463935117
       9        0.000018058364     0.000033108925    -0.000003372099
      10        0.000009451786     0.000003916684    -0.000015670773
      11       -0.000043340196     0.000018580486     0.000098919666
      12        0.000352806515     0.002138897471     0.000438347726
      13        0.000060780545    -0.000027014278     0.000085427091
      14        0.000120267356     0.000074803559    -0.000245431794
      15        0.001932295163    -0.003392041438     0.003477300600
      16       -0.000130701617     0.000166280901    -0.000126724253
      17        0.000006865624     0.000038567153     0.000019834249
      18       -0.000000919313    -0.000002658349     0.000035616347
      19        0.000001218825     0.000031944289     0.000000634103
      20       -0.000096269785     0.000020973642     0.000085450489
      21        0.000145893552    -0.000203193217     0.000105146700
      22       -0.000145689653    -0.000018707959     0.000056584093
      23        0.000017739982     0.000254434630     0.000180676134
      24       -0.000039010471     0.000059517952    -0.000062208822
      25        0.000063596160     0.000023637587     0.000079219163
      26       -0.000027309997    -0.000046988877    -0.000022246451
      27        0.000045327643     0.000027845437    -0.000004362055
      28        0.000002577278     0.000020605897     0.000036552921
      29        0.000035292449    -0.000085219692    -0.000071889529
      30       -0.000027395209     0.000003482505     0.000104063147

  **** Optimization is complete! (in 1 steps) ****
    Final optimized geometry and variables:
    Molecular point group: c1

    Geometry (in Angstrom), charge = 0, multiplicity = 1:

    N           -0.025411107565    -0.208932681538    -0.264947211612
    C            0.926909861959     0.537909726404     0.400711768317
    C            2.413423910185     0.599722326793     0.028097392432
    N            2.990829240996    -0.185876829293    -1.065223087528
    O            0.634217511043     1.215445409459     1.405265653869
    H            2.581117891796     1.655123241746    -0.193320454809
    H            2.936238735905     0.401852324279     0.977544167398
    C           -1.399494772297    -0.084062072481     0.165720566072
    C           -4.053456024277     0.135362767519     1.038359447922
    C           -3.041855546256    -0.201926710006     1.936656035461
    C           -3.731154297128     0.366628396997    -0.294224461449
    C           -1.725335009203    -0.311869112564     1.506205749415
    C           -2.410923097915     0.262712073336    -0.730299004115
    C            0.170319386504    -0.760929891877    -1.616131442532
    C            4.324648577451     0.314027562770    -1.419620235166
    C            3.085748607464    -1.609645677075    -0.692570826532
    H           -3.277223562871    -0.378470935723     2.977249691251
    H           -4.502742044302     0.636727039314    -1.002382622799
    H           -0.944068827235    -0.558119992834     2.206703178595
    H           -2.187978719420     0.467969982802    -1.765911679546
    H           -0.440469004059    -0.231049479564    -2.344992196172
    H            1.203910863235    -0.636856980106    -1.915603942136
    H           -0.113428569624    -1.813000669703    -1.626752168687
    H            4.257012935986     1.347330677966    -1.759037591348
    H            5.025337633499     0.267770229899    -0.569668989186
    H            3.792755721538    -1.763649801820     0.138077158881
    H            2.114245806938    -1.987174633413    -0.379440642295
    H           -5.077373483295     0.220132411589     1.375406077931
    H            4.729039537038    -0.285886799322    -2.234077739089
    H            3.422634725017    -2.192299743358    -1.549300292487

*** Psi4 exiting successfully. Buy a developer a beer!
