                               Psi4 1.5 release

  ==> Input File <==

--------------------------------------------------------------------------
molecule {
0 1
 N   -0.195779    0.279548   -0.699632
 C    0.762594   -0.686704   -0.458054
 C    2.107745   -0.565347   -1.166486
 N    3.190206   -0.430598   -0.197331
 O    0.558404   -1.635497    0.313403
 H    2.250843   -1.503155   -1.705378
 H    2.129287    0.247434   -1.907177
 C   -1.430119    0.250426    0.034805
 C   -3.847004    0.252191    1.435166
 C   -3.426360   -0.891378    0.758201
 C   -3.051905    1.395308    1.414138
 C   -2.225581   -0.895351    0.055224
 C   -1.843092    1.392906    0.722684
 C    0.021999    1.413552   -1.608071
 C    4.505267   -0.619062   -0.794773
 C    3.091918    0.776181    0.614403
 H   -4.034369   -1.785458    0.775236
 H   -3.363671    2.284977    1.944137
 H   -1.892334   -1.784021   -0.456325
 H   -1.214514    2.273679    0.726417
 H   -0.910455    1.963621   -1.694095
 H    0.793640    2.093471   -1.242900
 H    0.294969    1.072170   -2.605821
 H    4.547167   -1.586657   -1.295093
 H    4.762329    0.165427   -1.530717
 H    3.193470    1.702578    0.017787
 H    2.134426    0.800171    1.135083
 H   -4.782398    0.250532    1.977552
 H    5.263554   -0.612385   -0.011963
 H    3.877622    0.770058    1.369044
}
memory 8.166666666666666GB
set_num_threads(2)
psi4_io.set_default_path("/scratch/bdw2292/Psi4-25_27_Index_0-farH_in17")
set freeze_core True
E, wfn = energy('wb97x-d/6-311+G*',return_wfn=True)
oeprop(wfn,"WIBERG_LOWDIN_INDICES")
clean()
--------------------------------------------------------------------------

    Molecular point group: c1

    Geometry (in Angstrom), charge = 0, multiplicity = 1:

       Center              X                  Y                   Z               Mass
    ------------   -----------------  -----------------  -----------------  -----------------
         N           -0.195779158540     0.279547922658    -0.699632001803    14.003074004430
         C            0.762593841460    -0.686704077342    -0.458054001803    12.000000000000
         C            2.107744841460    -0.565347077342    -1.166486001803    12.000000000000
         N            3.190205841460    -0.430598077342    -0.197331001803    14.003074004430
         O            0.558403841460    -1.635497077342     0.313402998197    15.994914619570
         H            2.250842841460    -1.503155077342    -1.705378001803     1.007825032230
         H            2.129286841460     0.247433922658    -1.907177001803     1.007825032230
         C           -1.430119158540     0.250425922658     0.034804998197    12.000000000000
         C           -3.847004158540     0.252190922658     1.435165998197    12.000000000000
         C           -3.426360158540    -0.891378077342     0.758200998197    12.000000000000
         C           -3.051905158540     1.395307922658     1.414137998197    12.000000000000
         C           -2.225581158540    -0.895351077342     0.055223998197    12.000000000000
         C           -1.843092158540     1.392905922658     0.722683998197    12.000000000000
         C            0.021998841460     1.413551922658    -1.608071001803    12.000000000000
         C            4.505266841460    -0.619062077342    -0.794773001803    12.000000000000
         C            3.091917841460     0.776180922658     0.614402998197    12.000000000000
         H           -4.034369158540    -1.785458077342     0.775235998197     1.007825032230
         H           -3.363671158540     2.284976922658     1.944136998197     1.007825032230
         H           -1.892334158540    -1.784021077342    -0.456325001803     1.007825032230
         H           -1.214514158540     2.273678922658     0.726416998197     1.007825032230
         H           -0.910455158540     1.963620922658    -1.694095001803     1.007825032230
         H            0.793639841460     2.093470922658    -1.242900001803     1.007825032230
         H            0.294968841460     1.072169922658    -2.605821001803     1.007825032230
         H            4.547166841460    -1.586657077342    -1.295093001803     1.007825032230
         H            4.762328841460     0.165426922658    -1.530717001803     1.007825032230
         H            3.193469841460     1.702577922658     0.017786998197     1.007825032230
         H            2.134425841460     0.800170922658     1.135082998197     1.007825032230
         H           -4.782398158540     0.250531922658     1.977551998197     1.007825032230
         H            5.263553841460    -0.612385077342    -0.011963001803     1.007825032230
         H            3.877621841460     0.770057922658     1.369043998197     1.007825032230

  Charge       = 0
  Multiplicity = 1
  Basis Set: 6-311+G*
    Blend: 6-311+G*
  Basis Set: (6-311+G* AUX)
    Blend: HEAVY-AUG-CC-PVTZ-JKFIT

    Orbital Energies [Eh]
    ---------------------

    Doubly Occupied:

       1A    -19.208124     2A    -14.477354     3A    -14.429043
       4A    -10.391516     5A    -10.333908     6A    -10.329630
       7A    -10.319497     8A    -10.301473     9A    -10.301238
      10A    -10.294685    11A    -10.293559    12A    -10.290897
      13A    -10.289787    14A    -10.288837    15A     -1.134542
      16A     -1.047828    17A     -1.027084    18A     -0.958877
      19A     -0.862502    20A     -0.854586    21A     -0.832821
      22A     -0.811140    23A     -0.808650    24A     -0.732927
      25A     -0.709694    26A     -0.692010    27A     -0.651099
      28A     -0.608939    29A     -0.597887    30A     -0.582555
      31A     -0.577884    32A     -0.559042    33A     -0.556146
      34A     -0.538080    35A     -0.532427    36A     -0.524853
      37A     -0.513189    38A     -0.497669    39A     -0.485058
      40A     -0.482376    41A     -0.477367    42A     -0.469762
      43A     -0.459838    44A     -0.455862    45A     -0.446934
      46A     -0.439005    47A     -0.433717    48A     -0.360655
      49A     -0.341864    50A     -0.328814    51A     -0.307691
      52A     -0.295116

  @DF-RKS Final Energy:  -613.45617877908887

   => Energetics <=

    Nuclear Repulsion Energy =            890.6030252134717102
    One-Electron Energy =               -2597.9570919196912655
    Two-Electron Energy =                1154.4476795356624734
    DFT Exchange-Correlation Energy =     -60.5292458086999545
    Empirical Dispersion Energy =          -0.0205457998319417
    VV10 Nonlocal Energy =                  0.0000000000000000
    Total Energy =                       -613.4561787790888729

  Dipole Moment: [D]
     X:     0.1250      Y:     3.3974      Z:    -2.3954     Total:     4.1588

*** Psi4 exiting successfully. Buy a developer a beer!
