                               Psi4 1.5 release

  ==> Input File <==

--------------------------------------------------------------------------
molecule {
0 1
 N   -0.091046    0.213355   -0.587349
 C    0.798226   -0.831648   -0.430489
 C    2.194782   -0.691272   -1.020156
 N    3.139304   -0.081762   -0.079715
 O    0.506461   -1.848694    0.219144
 H    2.530068   -1.709011   -1.205933
 H    2.179504   -0.162862   -1.989535
 C   -1.377331    0.155031    0.053967
 C   -3.884076    0.140369    1.279430
 C   -3.485368   -0.930457    0.481705
 C   -3.022855    1.219260    1.467121
 C   -2.238073   -0.924829   -0.136717
 C   -1.769233    1.222728    0.861836
 C    0.114113    1.286357   -1.571680
 C    4.521156   -0.230591   -0.519281
 C    2.840370    1.261233    0.395997
 H   -4.146132   -1.774555    0.339766
 H   -3.318744    2.050067    2.092885
 H   -1.920826   -1.760581   -0.739958
 H   -1.085841    2.046601    1.020911
 H   -0.725030    1.972737   -1.506590
 H    1.026717    1.845368   -1.383632
 H    0.146607    0.889366   -2.588571
 H    4.733049   -1.278438   -0.731320
 H    4.747450    0.360142   -1.425872
 H    2.968092    2.036494   -0.381718
 H    1.823574    1.309951    0.782443
 H   -4.854788    0.130487    1.755688
 H    5.193330    0.094804    0.274758
 H    3.516376    1.503142    1.216639
}
memory 8.166666666666666GB
set_num_threads(2)
psi4_io.set_default_path("/scratch/bdw2292/Psi4-25_27_Index_0-farH_in17")
set freeze_core True
E, wfn = energy('wb97x-d/6-311+G*',return_wfn=True)
oeprop(wfn,"WIBERG_LOWDIN_INDICES")
clean()
--------------------------------------------------------------------------

    Molecular point group: c1

    Geometry (in Angstrom), charge = 0, multiplicity = 1:

       Center              X                  Y                   Z               Mass
    ------------   -----------------  -----------------  -----------------  -----------------
         N           -0.091045927791     0.213355021498    -0.587349113532    14.003074004430
         C            0.798226072209    -0.831647978502    -0.430489113532    12.000000000000
         C            2.194782072209    -0.691271978502    -1.020156113532    12.000000000000
         N            3.139304072209    -0.081761978502    -0.079715113532    14.003074004430
         O            0.506461072209    -1.848693978502     0.219143886468    15.994914619570
         H            2.530068072209    -1.709010978502    -1.205933113532     1.007825032230
         H            2.179504072209    -0.162861978502    -1.989535113532     1.007825032230
         C           -1.377330927791     0.155031021498     0.053966886468    12.000000000000
         C           -3.884075927791     0.140369021498     1.279429886468    12.000000000000
         C           -3.485367927791    -0.930456978502     0.481704886468    12.000000000000
         C           -3.022854927791     1.219260021498     1.467120886468    12.000000000000
         C           -2.238072927791    -0.924828978502    -0.136717113532    12.000000000000
         C           -1.769232927791     1.222728021498     0.861835886468    12.000000000000
         C            0.114113072209     1.286357021498    -1.571680113532    12.000000000000
         C            4.521156072209    -0.230590978502    -0.519281113532    12.000000000000
         C            2.840370072209     1.261233021498     0.395996886468    12.000000000000
         H           -4.146131927791    -1.774554978502     0.339765886468     1.007825032230
         H           -3.318743927791     2.050067021498     2.092884886468     1.007825032230
         H           -1.920825927791    -1.760580978502    -0.739958113532     1.007825032230
         H           -1.085840927791     2.046601021498     1.020910886468     1.007825032230
         H           -0.725029927791     1.972737021498    -1.506590113532     1.007825032230
         H            1.026717072209     1.845368021498    -1.383632113532     1.007825032230
         H            0.146607072209     0.889366021498    -2.588571113532     1.007825032230
         H            4.733049072209    -1.278437978502    -0.731320113532     1.007825032230
         H            4.747450072209     0.360142021498    -1.425872113532     1.007825032230
         H            2.968092072209     2.036494021498    -0.381718113532     1.007825032230
         H            1.823574072209     1.309951021498     0.782442886468     1.007825032230
         H           -4.854787927791     0.130487021498     1.755687886468     1.007825032230
         H            5.193330072209     0.094804021498     0.274757886468     1.007825032230
         H            3.516376072209     1.503142021498     1.216638886468     1.007825032230

  Charge       = 0
  Multiplicity = 1
  Basis Set: 6-311+G*
    Blend: 6-311+G*
  Basis Set: (6-311+G* AUX)
    Blend: HEAVY-AUG-CC-PVTZ-JKFIT

    Orbital Energies [Eh]
    ---------------------

    Doubly Occupied:

       1A    -19.209948     2A    -14.475460     3A    -14.432710
       4A    -10.391535     5A    -10.333349     6A    -10.327537
       7A    -10.319783     8A    -10.304796     9A    -10.303156
      10A    -10.295126    11A    -10.294242    12A    -10.292024
      13A    -10.291219    14A    -10.290364    15A     -1.134586
      16A     -1.047351    17A     -1.027582    18A     -0.959630
      19A     -0.862531    20A     -0.855075    21A     -0.835205
      22A     -0.812809    23A     -0.807917    24A     -0.732749
      25A     -0.711233    26A     -0.695180    27A     -0.652446
      28A     -0.607958    29A     -0.596334    30A     -0.586746
      31A     -0.578217    32A     -0.560602    33A     -0.553774
      34A     -0.536398    35A     -0.530251    36A     -0.528158
      37A     -0.514582    38A     -0.500145    39A     -0.489983
      40A     -0.483865    41A     -0.472787    42A     -0.470020
      43A     -0.460974    44A     -0.456698    45A     -0.450322
      46A     -0.440167    47A     -0.435779    48A     -0.356892
      49A     -0.344240    50A     -0.331346    51A     -0.310891
      52A     -0.294597

  @DF-RKS Final Energy:  -613.45457740768995

   => Energetics <=

    Nuclear Repulsion Energy =            893.8627867736615826
    One-Electron Energy =               -2604.3889266039677750
    Two-Electron Energy =                1157.6228873759621365
    DFT Exchange-Correlation Energy =     -60.5300222532015795
    Empirical Dispersion Energy =          -0.0213027001443487
    VV10 Nonlocal Energy =                  0.0000000000000000
    Total Energy =                       -613.4545774076899534

  Dipole Moment: [D]
     X:     0.1681      Y:     3.4682      Z:    -2.2629     Total:     4.1445

*** Psi4 exiting successfully. Buy a developer a beer!
