                               Psi4 1.5 release

  ==> Input File <==

--------------------------------------------------------------------------
molecule {
0 1
 N   -0.239479    0.270663   -0.736146
 C    0.885797   -0.021943    0.009571
 C    2.221926    0.138960   -0.699923
 N    3.274347   -0.745116   -0.210029
 O    0.799956   -0.363397    1.200693
 H    2.104763   -0.069649   -1.760890
 H    2.508074    1.209155   -0.622364
 C   -1.533338    0.246877   -0.111216
 C   -4.074171    0.211433    1.046608
 C   -3.236471   -0.897459    1.154137
 C   -3.633853    1.343088    0.364697
 C   -1.971197   -0.885622    0.575347
 C   -2.363467    1.365033   -0.205275
 C   -0.170129    0.669725   -2.147361
 C    4.411527   -0.762655   -1.130867
 C    3.718696   -0.460618    1.160052
 H   -3.567753   -1.777055    1.688697
 H   -4.271135    2.213334    0.285744
 H   -1.315748   -1.736725    0.669138
 H   -2.011663    2.254475   -0.711123
 H   -1.176793    0.883264   -2.493847
 H    0.438026    1.564544   -2.290324
 H    0.227797   -0.135204   -2.767943
 H    4.089058   -1.068933   -2.127026
 H    4.908517    0.221199   -1.210868
 H    4.201750    0.531266    1.233708
 H    2.870927   -0.496234    1.833223
 H   -5.057907    0.195780    1.495130
 H    5.146185   -1.485848   -0.778621
 H    4.443415   -1.217395    1.460221
}
memory 8.166666666666666GB
set_num_threads(2)
psi4_io.set_default_path("/scratch/bdw2292/Psi4-25_27_Index_0-farH_in17")
set freeze_core True
E, wfn = energy('wb97x-d/6-311+G*',return_wfn=True)
oeprop(wfn,"WIBERG_LOWDIN_INDICES")
clean()
--------------------------------------------------------------------------

    Molecular point group: c1

    Geometry (in Angstrom), charge = 0, multiplicity = 1:

       Center              X                  Y                   Z               Mass
    ------------   -----------------  -----------------  -----------------  -----------------
         N           -0.239478966650     0.270663024344    -0.736146042248    14.003074004430
         C            0.885797033350    -0.021942975656     0.009570957752    12.000000000000
         C            2.221926033350     0.138960024344    -0.699923042248    12.000000000000
         N            3.274347033350    -0.745115975656    -0.210029042248    14.003074004430
         O            0.799956033350    -0.363396975656     1.200692957752    15.994914619570
         H            2.104763033350    -0.069648975656    -1.760890042248     1.007825032230
         H            2.508074033350     1.209155024344    -0.622364042248     1.007825032230
         C           -1.533337966650     0.246877024344    -0.111216042248    12.000000000000
         C           -4.074170966650     0.211433024344     1.046607957752    12.000000000000
         C           -3.236470966650    -0.897458975656     1.154136957752    12.000000000000
         C           -3.633852966650     1.343088024344     0.364696957752    12.000000000000
         C           -1.971196966650    -0.885621975656     0.575346957752    12.000000000000
         C           -2.363466966650     1.365033024344    -0.205275042248    12.000000000000
         C           -0.170128966650     0.669725024344    -2.147361042248    12.000000000000
         C            4.411527033350    -0.762654975656    -1.130867042248    12.000000000000
         C            3.718696033350    -0.460617975656     1.160051957752    12.000000000000
         H           -3.567752966650    -1.777054975656     1.688696957752     1.007825032230
         H           -4.271134966650     2.213334024344     0.285743957752     1.007825032230
         H           -1.315747966650    -1.736724975656     0.669137957752     1.007825032230
         H           -2.011662966650     2.254475024344    -0.711123042248     1.007825032230
         H           -1.176792966650     0.883264024344    -2.493847042248     1.007825032230
         H            0.438026033350     1.564544024344    -2.290324042248     1.007825032230
         H            0.227797033350    -0.135203975656    -2.767943042248     1.007825032230
         H            4.089058033350    -1.068932975656    -2.127026042248     1.007825032230
         H            4.908517033350     0.221199024344    -1.210868042248     1.007825032230
         H            4.201750033350     0.531266024344     1.233707957752     1.007825032230
         H            2.870927033350    -0.496233975656     1.833222957752     1.007825032230
         H           -5.057906966650     0.195780024344     1.495129957752     1.007825032230
         H            5.146185033350    -1.485847975656    -0.778621042248     1.007825032230
         H            4.443415033350    -1.217394975656     1.460220957752     1.007825032230

  Charge       = 0
  Multiplicity = 1
  Basis Set: 6-311+G*
    Blend: 6-311+G*
  Basis Set: (6-311+G* AUX)
    Blend: HEAVY-AUG-CC-PVTZ-JKFIT

    Orbital Energies [Eh]
    ---------------------

    Doubly Occupied:

       1A    -19.210532     2A    -14.477097     3A    -14.427977
       4A    -10.394747     5A    -10.334039     6A    -10.331174
       7A    -10.323536     8A    -10.299998     9A    -10.294901
      10A    -10.293667    11A    -10.290983    12A    -10.290083
      13A    -10.288865    14A    -10.281185    15A     -1.137210
      16A     -1.049165    17A     -1.021811    18A     -0.959501
      19A     -0.865013    20A     -0.854767    21A     -0.834211
      22A     -0.809653    23A     -0.798105    24A     -0.732412
      25A     -0.710165    26A     -0.689144    27A     -0.649405
      28A     -0.609988    29A     -0.598114    30A     -0.582464
      31A     -0.575997    32A     -0.556121    33A     -0.553249
      34A     -0.537755    35A     -0.534259    36A     -0.519550
      37A     -0.512642    38A     -0.502081    39A     -0.497031
      40A     -0.477362    41A     -0.469603    42A     -0.465993
      43A     -0.452538    44A     -0.446158    45A     -0.442812
      46A     -0.441118    47A     -0.434357    48A     -0.361335
      49A     -0.343266    50A     -0.330153    51A     -0.309062
      52A     -0.295120

  @DF-RKS Final Energy:  -613.45701823435058

   => Energetics <=

    Nuclear Repulsion Energy =            881.7967661064147933
    One-Electron Energy =               -2580.4456907795802181
    Two-Electron Energy =                1145.7405389124878639
    DFT Exchange-Correlation Energy =     -60.5292009934978239
    Empirical Dispersion Energy =          -0.0194314801752671
    VV10 Nonlocal Energy =                  0.0000000000000000
    Total Energy =                       -613.4570182343505849

  Dipole Moment: [D]
     X:    -0.3568      Y:     1.5297      Z:    -3.4488     Total:     3.7897

*** Psi4 exiting successfully. Buy a developer a beer!
