                               Psi4 1.5 release

  ==> Input File <==

--------------------------------------------------------------------------
molecule {
0 1
 N   -0.235414    0.542526   -0.592879
 C    0.917964    0.385657    0.216742
 C    2.287590    0.677991   -0.471473
 N    3.230817   -0.464344   -0.478095
 O    0.832796    0.093948    1.412037
 H    2.211457    1.082721   -1.493202
 H    2.781634    1.491258    0.089934
 C   -1.550038    0.396175    0.003842
 C   -4.135757    0.130370    1.114702
 C   -3.192618   -0.893253    1.274593
 C   -3.790176    1.285759    0.401682
 C   -1.908125   -0.771691    0.727354
 C   -2.510434    1.427737   -0.153343
 C   -0.190472    0.464432   -2.073875
 C    4.354697   -0.234504   -1.407544
 C    3.755718   -0.752169    0.877052
 H   -3.456300   -1.796464    1.827530
 H   -4.520528    2.086403    0.271538
 H   -1.183280   -1.576158    0.862864
 H   -2.258756    2.336101   -0.704729
 H   -1.158211    0.165210   -2.478943
 H    0.066747    1.437101   -2.493882
 H    0.539488   -0.277889   -2.399479
 H    3.965604   -0.103114   -2.430759
 H    4.938255    0.655996   -1.118028
 H    4.357804    0.087159    1.263767
 H    2.913097   -0.929241    1.563415
 H   -5.134644    0.027442    1.543055
 H    5.013031   -1.118510   -1.416236
 H    4.368129   -1.668174    0.852235
}
set optking {
  frozen_dihedral = ("
    1 2 3 4
    2 1 8 12
    8 1 2 3
    2 3 4 15
  ")
}
set {
  geom_maxiter 400
  g_convergence GAU_LOOSE
  dynamic_level 1
}
memory 8.166666666666666GB
set_num_threads(2)
psi4_io.set_default_path("/scratch/bdw2292/Psi4-25_27_Index_0-farH_in17")
for _ in range(1):
  try:
    set opt_coordinates both
    optimize('wb97x-d/6-311G')
    break
  except OptimizationConvergenceError:
    break
  else:
    try:
      set opt_coordinates cartesian
      optimize('wb97x-d/6-311G')
      break
    except OptimizationConvergenceError:
      pass
clean()
--------------------------------------------------------------------------

    Molecular point group: c1
  Charge       = 0
  Multiplicity = 1
  Basis Set: 6-311G
    Blend: 6-311G
  Basis Set: (6-311G AUX)
    Blend: CC-PVTZ-JKFIT
  @DF-RKS Final Energy:  -613.27217306296473
    Total Energy =                       -613.2721730629647254
    Molecular point group: c1
  Basis Set: 6-311G
    Blend: 6-311G
  Basis Set: (6-311G AUX)
    Blend: CC-PVTZ-JKFIT
  Basis Set: 6-311G
    Blend: 6-311G
  Basis Set: (6-311G AUX)
    Blend: CC-PVTZ-JKFIT
  @DF-RKS Final Energy:  -613.27460728144138
    Total Energy =                       -613.2746072814413765
  Basis Set: 6-311G
    Blend: 6-311G
  Basis Set: (6-311G AUX)
    Blend: CC-PVTZ-JKFIT
  Basis Set: 6-311G
    Blend: 6-311G
  @DF-RKS Final Energy:  -613.28027379362049
    Total Energy =                       -613.2802737936206086
  @DF-RKS Final Energy:  -613.28061311743636
    Total Energy =                       -613.2806131174363600
  @DF-RKS Final Energy:  -613.28081308020330
    Total Energy =                       -613.2808130802033020
  @DF-RKS Final Energy:  -613.28095583801985
    Total Energy =                       -613.2809558380198496
  @DF-RKS Final Energy:  -613.28092532445248
    Total Energy =                       -613.2809253244524825
  @DF-RKS Final Energy:  -613.28095585138965
    Total Energy =                       -613.2809558513896491
  Basis Set: (6-311G AUX)
    Blend: CC-PVTZ-JKFIT
  Basis Set: 6-311G
    Blend: 6-311G
  Basis Set: (6-311G AUX)
    Blend: CC-PVTZ-JKFIT
  @DF-RKS Final Energy:  -613.28096726744047
    Total Energy =                       -613.2809672674405874
  Basis Set: 6-311G
    Blend: 6-311G
  Basis Set: (6-311G AUX)
    Blend: CC-PVTZ-JKFIT
  Charge       = 0
  Multiplicity = 1
  Basis Set: 6-311G
    Blend: 6-311G
  Basis Set: (6-311G AUX)
    Blend: CC-PVTZ-JKFIT

    Orbital Energies [Eh]
    ---------------------

    Doubly Occupied:

       1A    -19.210520     2A    -14.478836     3A    -14.430132
       4A    -10.400530     5A    -10.337303     6A    -10.330479
       7A    -10.322905     8A    -10.302876     9A    -10.296812
      10A    -10.295688    11A    -10.293358    12A    -10.292652
      13A    -10.291594    14A    -10.284291    15A     -1.151730
      16A     -1.053800    17A     -1.027760    18A     -0.964560
      19A     -0.867738    20A     -0.858088    21A     -0.837005
      22A     -0.813922    23A     -0.803701    24A     -0.734167
      25A     -0.713213    26A     -0.693445    27A     -0.654324
      28A     -0.610596    29A     -0.600575    30A     -0.581925
      31A     -0.577701    32A     -0.558336    33A     -0.554754
      34A     -0.536292    35A     -0.535885    36A     -0.520040
      37A     -0.514565    38A     -0.499505    39A     -0.494823
      40A     -0.479226    41A     -0.472352    42A     -0.464566
      43A     -0.452366    44A     -0.448987    45A     -0.446072
      46A     -0.441075    47A     -0.434917    48A     -0.356315
      49A     -0.340681    50A     -0.328830    51A     -0.307294
      52A     -0.286495

  @DF-RKS Final Energy:  -613.28097524380269

   => Energetics <=

    Nuclear Repulsion Energy =            883.9557316969719523
    One-Electron Energy =               -2584.2466082437758814
    Two-Electron Energy =                1147.5462220494919166
    DFT Exchange-Correlation Energy =     -60.5167158138508157
    Empirical Dispersion Energy =          -0.0196049326397380
    VV10 Nonlocal Energy =                  0.0000000000000000
    Total Energy =                       -613.2809752438025725

  Dipole Moment: [D]
     X:    -0.6286      Y:    -0.0058      Z:    -3.6718     Total:     3.7253

    Molecular point group: c1
  Basis Set: 6-311G
    Blend: 6-311G
  Basis Set: (6-311G AUX)
    Blend: CC-PVTZ-JKFIT

  -Total Gradient:
     Atom            X                  Y                   Z
    ------   -----------------  -----------------  -----------------
       1       -0.000273868073     0.004064282825     0.000042067344
       2        0.001155377181    -0.002332059527     0.001524639718
       3       -0.002038029995    -0.002429007189    -0.003838733765
       4        0.000501598049     0.000743724316     0.001630411546
       5        0.000091699449    -0.000063665683     0.000034441897
       6       -0.000102135287     0.000004904853    -0.000088680323
       7       -0.000070317781     0.000045588766     0.000012635646
       8       -0.000020199323    -0.000996975347     0.000006926205
       9        0.000017218852    -0.000023987805    -0.000012965419
      10       -0.000024558836     0.000045085296    -0.000047714465
      11        0.000066998717    -0.000005578320    -0.000021679103
      12       -0.000002457066     0.000110581545     0.000014780308
      13       -0.000027405313     0.000001278535     0.000030259540
      14        0.000005910015    -0.000051376709    -0.000062280660
      15        0.000563397609     0.000769930713     0.000755074827
      16       -0.000075440057    -0.000017919336    -0.000073385716
      17       -0.000003894772     0.000013230923     0.000007891074
      18       -0.000002374041    -0.000009389326    -0.000017077220
      19       -0.000001563533     0.000018932443     0.000000657914
      20        0.000006913577    -0.000011999815    -0.000013934265
      21        0.000041618350    -0.000051229534     0.000024430808
      22        0.000037882397    -0.000000059728    -0.000010858217
      23       -0.000057667647     0.000035672242     0.000028190549
      24       -0.000005341686    -0.000011767950    -0.000062983524
      25        0.000059386641     0.000043404456    -0.000008862514
      26       -0.000004481821     0.000033321496     0.000015372740
      27        0.000023206896     0.000032298579     0.000019978580
      28        0.000003485339     0.000014336842    -0.000004942729
      29        0.000013506988    -0.000025829639    -0.000000719804
      30       -0.000003716969    -0.000009198454     0.000012760002

  **** Optimization is complete! (in 3 steps) ****
    Final optimized geometry and variables:
    Molecular point group: c1

    Geometry (in Angstrom), charge = 0, multiplicity = 1:

    N           -0.267015132349     0.173893373506    -0.690145716392
    C            0.917670017611     0.307033579251    -0.002464617164
    C            2.194907201015     0.454374975411    -0.812159993672
    N            3.169935448700    -0.605286113499    -0.532951189750
    O            0.945783594432     0.374487815980     1.240586194607
    H            2.003785384064     0.454724556125    -1.880340249541
    H            2.601023385747     1.451683073827    -0.558884142906
    C           -1.512982922779     0.140274702095     0.025693708675
    C           -3.980279370988     0.062873132654     1.325659473367
    C           -2.958282636609    -0.806155700530     1.704472127088
    C           -3.763011876215     0.976442001404     0.296919445568
    C           -1.727278520959    -0.774248703148     1.055896311080
    C           -2.529277633705     1.020530292319    -0.347186158250
    C           -0.325206556933    -0.046034306193    -2.142325494815
    C            4.232000776374    -0.622723668504    -1.538862136458
    C            3.726679235674    -0.575740119198     0.823041113368
    H           -3.118691961894    -1.513789067296     2.506261613716
    H           -4.546730566566     1.661080473703     0.002533785410
    H           -0.930035807326    -1.436562003240     1.353951298842
    H           -2.347899688084     1.742815255910    -1.132130511862
    H           -1.333721914051    -0.358846962987    -2.397657104004
    H           -0.092429190796     0.858206933579    -2.708134359208
    H            0.355570485256    -0.843215859509    -2.439172576024
    H            3.808415120456    -0.753091113280    -2.535690383898
    H            4.835400313043     0.302747574389    -1.533127453892
    H            4.334198634765     0.331070358042     0.993753193934
    H            2.929486390142    -0.591553165371     1.557362024654
    H           -4.935608814692     0.031808818879     1.831200227040
    H            4.898046432484    -1.462777664106    -1.343956816417
    H            4.362063998975    -1.450557359772     0.961173935141

*** Psi4 exiting successfully. Buy a developer a beer!
