                               Psi4 1.5 release

  ==> Input File <==

--------------------------------------------------------------------------
molecule {
0 1
 N   -0.179135    0.233480   -0.671430
 C    0.792448   -0.761523   -0.398633
 C    2.188969   -0.595264   -1.068445
 N    3.304334   -0.461425   -0.107176
 O    0.557962   -1.691355    0.372580
 H    2.403795   -1.469287   -1.706666
 H    2.250722    0.265393   -1.754185
 C   -1.458474    0.185243    0.012406
 C   -3.956789    0.140630    1.334963
 C   -3.509530   -0.989214    0.637581
 C   -3.159059    1.291610    1.373972
 C   -2.272777   -0.977201   -0.021667
 C   -1.917707    1.323758    0.723004
 C   -0.096167    1.148244   -1.834931
 C    4.614046   -0.621426   -0.766013
 C    3.242307    0.824537    0.616578
 H   -4.125786   -1.889338    0.603510
 H   -3.502208    2.175944    1.914105
 H   -1.934926   -1.866954   -0.555354
 H   -1.307702    2.228423    0.768617
 H   -1.060005    1.619589   -2.032491
 H    0.631514    1.936441   -1.639610
 H    0.188432    0.603056   -2.735435
 H    4.668974   -1.617573   -1.234964
 H    4.776677    0.156666   -1.531119
 H    3.329028    1.680845   -0.073420
 H    2.291608    0.892221    1.169896
 H   -4.921360    0.123583    1.845968
 H    5.415381   -0.568837   -0.010942
 H    4.055505    0.868205    1.359170
}
set optking {
  frozen_dihedral = ("
    1 2 3 4
    2 1 8 12
    8 1 2 3
    2 3 4 15
  ")
}
set {
  geom_maxiter 400
  g_convergence GAU_LOOSE
  dynamic_level 1
}
memory 8.166666666666666GB
set_num_threads(2)
psi4_io.set_default_path("/scratch/bdw2292/Psi4-25_27_Index_0-farH_in17")
for _ in range(1):
  try:
    set opt_coordinates both
    optimize('wb97x-d/6-311G')
    break
  except OptimizationConvergenceError:
    break
  else:
    try:
      set opt_coordinates cartesian
      optimize('wb97x-d/6-311G')
      break
    except OptimizationConvergenceError:
      pass
clean()
--------------------------------------------------------------------------

    Molecular point group: c1
  Charge       = 0
  Multiplicity = 1
  Basis Set: 6-311G
    Blend: 6-311G
  Basis Set: (6-311G AUX)
    Blend: CC-PVTZ-JKFIT
  @DF-RKS Final Energy:  -613.26959456285419
    Total Energy =                       -613.2695945628540812
    Molecular point group: c1
  Basis Set: 6-311G
    Blend: 6-311G
  Basis Set: (6-311G AUX)
    Blend: CC-PVTZ-JKFIT
  Basis Set: 6-311G
    Blend: 6-311G
  Basis Set: (6-311G AUX)
    Blend: CC-PVTZ-JKFIT
  @DF-RKS Final Energy:  -613.27371147921497
    Total Energy =                       -613.2737114792150805
  Basis Set: 6-311G
    Blend: 6-311G
  Basis Set: (6-311G AUX)
    Blend: CC-PVTZ-JKFIT
  Basis Set: 6-311G
    Blend: 6-311G
  @DF-RKS Final Energy:  -613.27723069527008
    Total Energy =                       -613.2772306952699637
  @DF-RKS Final Energy:  -613.27841826157123
    Total Energy =                       -613.2784182615713462
  @DF-RKS Final Energy:  -613.27857944185757
    Total Energy =                       -613.2785794418575733
  @DF-RKS Final Energy:  -613.27869386022280
    Total Energy =                       -613.2786938602229156
  @DF-RKS Final Energy:  -613.27868673827106
    Total Energy =                       -613.2786867382710625
  @DF-RKS Final Energy:  -613.27869385744623
    Total Energy =                       -613.2786938574461146
  Basis Set: (6-311G AUX)
    Blend: CC-PVTZ-JKFIT
  Basis Set: 6-311G
    Blend: 6-311G
  Basis Set: (6-311G AUX)
    Blend: CC-PVTZ-JKFIT
  @DF-RKS Final Energy:  -613.27870165967954
    Total Energy =                       -613.2787016596796548
  Basis Set: 6-311G
    Blend: 6-311G
  Basis Set: (6-311G AUX)
    Blend: CC-PVTZ-JKFIT
  Charge       = 0
  Multiplicity = 1
  Basis Set: 6-311G
    Blend: 6-311G
  Basis Set: (6-311G AUX)
    Blend: CC-PVTZ-JKFIT

    Orbital Energies [Eh]
    ---------------------

    Doubly Occupied:

       1A    -19.207746     2A    -14.478596     3A    -14.429734
       4A    -10.398491     5A    -10.337759     6A    -10.330652
       7A    -10.322310     8A    -10.303007     9A    -10.302307
      10A    -10.296704    11A    -10.295336    12A    -10.292567
      13A    -10.291647    14A    -10.290602    15A     -1.150061
      16A     -1.052813    17A     -1.032920    18A     -0.963725
      19A     -0.866434    20A     -0.857819    21A     -0.836664
      22A     -0.815257    23A     -0.812812    24A     -0.735997
      25A     -0.712120    26A     -0.694726    27A     -0.654021
      28A     -0.610882    29A     -0.599888    30A     -0.584798
      31A     -0.577992    32A     -0.560014    33A     -0.558416
      34A     -0.538417    35A     -0.534895    36A     -0.525687
      37A     -0.515930    38A     -0.498045    39A     -0.486331
      40A     -0.479297    41A     -0.478599    42A     -0.470657
      43A     -0.460738    44A     -0.456488    45A     -0.446754
      46A     -0.439223    47A     -0.433584    48A     -0.358083
      49A     -0.339187    50A     -0.325512    51A     -0.304105
      52A     -0.285903

  @DF-RKS Final Energy:  -613.27871872111052

   => Energetics <=

    Nuclear Repulsion Energy =            890.6030467775303805
    One-Electron Energy =               -2597.4411476510222201
    Two-Electron Energy =                1154.0969826397433735
    DFT Exchange-Correlation Energy =     -60.5170546866196446
    Empirical Dispersion Energy =          -0.0205458007423850
    VV10 Nonlocal Energy =                  0.0000000000000000
    Total Energy =                       -613.2787187211105220

  Dipole Moment: [D]
     X:     0.1582      Y:     3.5878      Z:    -2.5613     Total:     4.4111

    Molecular point group: c1
  Basis Set: 6-311G
    Blend: 6-311G
  Basis Set: (6-311G AUX)
    Blend: CC-PVTZ-JKFIT

  -Total Gradient:
     Atom            X                  Y                   Z
    ------   -----------------  -----------------  -----------------
       1       -0.000483090424    -0.001029425196    -0.001015838197
       2        0.000274648687     0.000691040220     0.000781035246
       3       -0.000058838121     0.001098870210     0.000060943216
       4        0.000039292296    -0.001296210852     0.000166380841
       5       -0.000026556564    -0.000061431295    -0.000067628544
       6        0.000035554796    -0.000050670101    -0.000046657009
       7       -0.000051597021     0.000090715873    -0.000009202799
       8        0.000085831956     0.000262028950     0.000397518284
       9        0.000016231137    -0.000131705995     0.000003629885
      10       -0.000106680816     0.000072466827     0.000041785610
      11        0.000046245481     0.000033357404    -0.000062967418
      12        0.000118915342     0.000107623918     0.000112174440
      13       -0.000040621376     0.000013806911    -0.000041251899
      14        0.000028982658     0.000018526155    -0.000151990911
      15        0.000009042728     0.000341336845    -0.000127099116
      16       -0.000071416547     0.000035086992     0.000003169821
      17        0.000003365716    -0.000013362568     0.000036318816
      18       -0.000019494666    -0.000019627660    -0.000023470410
      19        0.000009054978    -0.000016491834    -0.000000163660
      20        0.000038725362     0.000001470051    -0.000084027909
      21        0.000155547761    -0.000063740091     0.000027289113
      22       -0.000098108052    -0.000090053665    -0.000062335740
      23       -0.000008955933     0.000005736154     0.000053358760
      24        0.000006149561    -0.000005324072    -0.000000441385
      25        0.000019784143     0.000010117445    -0.000006067549
      26        0.000000028508     0.000018778251    -0.000019098024
      27       -0.000009255651     0.000018941870    -0.000005649359
      28       -0.000011059966    -0.000002756486    -0.000007749258
      29       -0.000025886557     0.000022834194     0.000014521509
      30        0.000017662427     0.000010685051     0.000003743227

  **** Optimization is complete! (in 3 steps) ****
    Final optimized geometry and variables:
    Molecular point group: c1

    Geometry (in Angstrom), charge = 0, multiplicity = 1:

    N           -0.195778980645     0.279548024076    -0.699631988110
    C            0.762593815835    -0.686704257899    -0.458053941643
    C            2.107744586287    -0.565347195296    -1.166485698085
    N            3.190205587168    -0.430598467926    -0.197330611012
    O            0.558403665021    -1.635496611999     0.313403005419
    H            2.250842501981    -1.503155477801    -1.705377641044
    H            2.129286945041     0.247434003545    -1.907176828629
    C           -1.430118926926     0.250426351575     0.034805247742
    C           -3.847004012543     0.252190726619     1.435166247048
    C           -3.426359954139    -0.891378245137     0.758200648776
    C           -3.051904830375     1.395308204951     1.414138143150
    C           -2.225580938737    -0.895351485198     0.055223542961
    C           -1.843092491788     1.392905732647     0.722683869192
    C            0.021998969185     1.413552074150    -1.608071163178
    C            4.505266515892    -0.619061984372    -0.794773015263
    C            3.091917668258     0.776181062781     0.614402584195
    H           -4.034368526683    -1.785458260934     0.775236315402
    H           -3.363670639714     2.284976979344     1.944136952224
    H           -1.892333531807    -1.784020945106    -0.456324771183
    H           -1.214513692027     2.273678698081     0.726416552166
    H           -0.910455449332     1.963621418146    -1.694095141224
    H            0.793640182698     2.093470771424    -1.242900406820
    H            0.294968741573     1.072169636545    -2.605820625604
    H            4.547166754077    -1.586657219300    -1.295093102410
    H            4.762329082241     0.165426575517    -1.530716915865
    H            3.193469806974     1.702577559055     0.017786607047
    H            2.134425831337     0.800170621292     1.135082772416
    H           -4.782398448023     0.250531773229     1.977552338343
    H            5.263554367468    -0.612385094127    -0.011963197537
    H            3.877621674166     0.770058313716     1.369044464494

*** Psi4 exiting successfully. Buy a developer a beer!
