                               Psi4 1.5 release

  ==> Input File <==

--------------------------------------------------------------------------
molecule {
0 1
 N   -0.038035    0.183488   -0.360324
 C    0.711130   -1.019674   -0.427367
 C    2.199730   -0.990732   -0.893667
 N    3.231688   -0.199017   -0.138772
 O    0.221030   -2.082556   -0.044272
 H    2.566872   -2.030350   -0.932734
 H    2.256510   -0.667734   -1.947881
 C   -1.378217    0.133089    0.197731
 C   -3.998190    0.141555    1.260518
 C   -3.657624   -0.752276    0.237037
 C   -3.035131    1.032623    1.751750
 C   -2.362905   -0.762597   -0.299422
 C   -1.733433    1.037427    1.230245
 C    0.116008    1.260680   -1.374557
 C    4.596981   -0.573063   -0.567812
 C    3.065665    1.257703   -0.201417
 H   -4.404269   -1.447161   -0.151424
 H   -3.295662    1.734465    2.546087
 H   -2.112910   -1.465153   -1.095955
 H   -0.996359    1.740515    1.623932
 H   -0.780955    1.329535   -1.992724
 H    0.259423    2.222670   -0.881921
 H    0.951460    1.083423   -2.046958
 H    4.747525   -1.654598   -0.417063
 H    4.763809   -0.323516   -1.629429
 H    3.062924    1.618587   -1.242624
 H    2.136600    1.536530    0.313954
 H   -5.009408    0.144292    1.672045
 H    5.341969   -0.050923    0.054617
 H    3.883848    1.751237    0.348275
}
set optking {
  frozen_dihedral = ("
    1 2 3 4
    2 1 8 12
    8 1 2 3
    2 3 4 15
  ")
}
set {
  geom_maxiter 400
  g_convergence GAU_LOOSE
  dynamic_level 1
}
memory 8.166666666666666GB
set_num_threads(2)
psi4_io.set_default_path("/scratch/bdw2292/Psi4-25_27_Index_0-farH_in17")
for _ in range(1):
  try:
    set opt_coordinates both
    optimize('wb97x-d/6-311G')
    break
  except OptimizationConvergenceError:
    break
  else:
    try:
      set opt_coordinates cartesian
      optimize('wb97x-d/6-311G')
      break
    except OptimizationConvergenceError:
      pass
clean()
--------------------------------------------------------------------------

    Molecular point group: c1
  Charge       = 0
  Multiplicity = 1
  Basis Set: 6-311G
    Blend: 6-311G
  Basis Set: (6-311G AUX)
    Blend: CC-PVTZ-JKFIT
  @DF-RKS Final Energy:  -613.26251774364709
    Total Energy =                       -613.2625177436470949
    Molecular point group: c1
  Basis Set: 6-311G
    Blend: 6-311G
  Basis Set: (6-311G AUX)
    Blend: CC-PVTZ-JKFIT
  Basis Set: 6-311G
    Blend: 6-311G
  Basis Set: (6-311G AUX)
    Blend: CC-PVTZ-JKFIT
  @DF-RKS Final Energy:  -613.27037130520205
    Total Energy =                       -613.2703713052021612
  Basis Set: 6-311G
    Blend: 6-311G
  Basis Set: (6-311G AUX)
    Blend: CC-PVTZ-JKFIT
  Basis Set: 6-311G
    Blend: 6-311G
  @DF-RKS Final Energy:  -613.27160945197704
    Total Energy =                       -613.2716094519769285
  @DF-RKS Final Energy:  -612.97917625120692
    Total Energy =                       -612.9791762512069226
  @DF-RKS Final Energy:  -613.09884481037432
    Total Energy =                       -613.0988448103743167
  @DF-RKS Final Energy:  -613.17661673356440
    Total Energy =                       -613.1766167335642876
  @DF-RKS Final Energy:  -613.23746186897074
    Total Energy =                       -613.2374618689706267
  @DF-RKS Final Energy:  -613.26800055658384
    Total Energy =                       -613.2680005565838428
  @DF-RKS Final Energy:  -613.27076102140586
    Total Energy =                       -613.2707610214059741
  @DF-RKS Final Energy:  -613.26835120191697
    Total Energy =                       -613.2683512019169711
  @DF-RKS Final Energy:  -613.27076101656928
    Total Energy =                       -613.2707610165693950
  @DF-RKS Final Energy:  -613.27180526640234
    Total Energy =                       -613.2718052664024526
  @DF-RKS Final Energy:  -613.27198915010524
    Total Energy =                       -613.2719891501051279
  @DF-RKS Final Energy:  -613.27200284084961
    Total Energy =                       -613.2720028408496091
  @DF-RKS Final Energy:  -613.27204824839578
    Total Energy =                       -613.2720482483958904
  @DF-RKS Final Energy:  -613.27201900473790
    Total Energy =                       -613.2720190047378992
  @DF-RKS Final Energy:  -613.27206505698871
    Total Energy =                       -613.2720650569888221
  @DF-RKS Final Energy:  -613.27162852448021
    Total Energy =                       -613.2716285244800929
  Basis Set: (6-311G AUX)
    Blend: CC-PVTZ-JKFIT
  Basis Set: 6-311G
    Blend: 6-311G
  Basis Set: (6-311G AUX)
    Blend: CC-PVTZ-JKFIT
  @DF-RKS Final Energy:  -613.27202853757842
    Total Energy =                       -613.2720285375783078
  Basis Set: 6-311G
    Blend: 6-311G
  Basis Set: (6-311G AUX)
    Blend: CC-PVTZ-JKFIT
  Charge       = 0
  Multiplicity = 1
  Basis Set: 6-311G
    Blend: 6-311G
  Basis Set: (6-311G AUX)
    Blend: CC-PVTZ-JKFIT

    Orbital Energies [Eh]
    ---------------------

    Doubly Occupied:

       1A    -19.213575     2A    -14.476634     3A    -14.432742
       4A    -10.402278     5A    -10.335791     6A    -10.329851
       7A    -10.325287     8A    -10.305158     9A    -10.305044
      10A    -10.297005    11A    -10.296046    12A    -10.294695
      13A    -10.294172    14A    -10.293624    15A     -1.153282
      16A     -1.053479    17A     -1.030959    18A     -0.964337
      19A     -0.864765    20A     -0.858164    21A     -0.841632
      22A     -0.814531    23A     -0.810988    24A     -0.734578
      25A     -0.714552    26A     -0.700616    27A     -0.656117
      28A     -0.608829    29A     -0.598781    30A     -0.588315
      31A     -0.578421    32A     -0.562264    33A     -0.554315
      34A     -0.535992    35A     -0.530022    36A     -0.526101
      37A     -0.516824    38A     -0.503591    39A     -0.499283
      40A     -0.483887    41A     -0.472443    42A     -0.466263
      43A     -0.459767    44A     -0.456876    45A     -0.450758
      46A     -0.439615    47A     -0.436463    48A     -0.349457
      49A     -0.343828    50A     -0.331021    51A     -0.313879
      52A     -0.284042

  @DF-RKS Final Energy:  -613.27206504448498

   => Energetics <=

    Nuclear Repulsion Energy =            893.3014113687821691
    One-Electron Energy =               -2602.7113537911691310
    Two-Electron Energy =                1156.6676907719738665
    DFT Exchange-Correlation Energy =     -60.5084484854192795
    Empirical Dispersion Energy =          -0.0213649086527496
    VV10 Nonlocal Energy =                  0.0000000000000000
    Total Energy =                       -613.2720650444850889

  Dipole Moment: [D]
     X:     0.8817      Y:    -1.7675      Z:    -3.5995     Total:     4.1058

    Molecular point group: c1
  Basis Set: 6-311G
    Blend: 6-311G
  Basis Set: (6-311G AUX)
    Blend: CC-PVTZ-JKFIT

  -Total Gradient:
     Atom            X                  Y                   Z
    ------   -----------------  -----------------  -----------------
       1        0.002076669603     0.013210923052    -0.002810059601
       2       -0.001431222993    -0.014809088606    -0.001633375522
       3        0.001098954761     0.009267225361     0.009802102514
       4       -0.001023995342    -0.004520875554    -0.006717751596
       5       -0.000602043447     0.000477627408     0.000779580682
       6        0.000027673523     0.000265981785     0.000013657670
       7        0.000180596834    -0.000464004982     0.000110056252
       8       -0.000409086077    -0.003251824477     0.000299432856
       9       -0.000313248727     0.000144919815     0.000006275013
      10       -0.000025319404    -0.000137896682     0.000247578022
      11        0.000000071934     0.000122476081    -0.000200480202
      12        0.000016251841     0.000001497756     0.000357777404
      13       -0.000030475859     0.000158200271    -0.000141148718
      14       -0.000044400304     0.001354171915     0.001699790028
      15        0.000366141417    -0.000112549992    -0.000576372931
      16       -0.000088767985    -0.000641525483     0.000322512728
      17       -0.000111094819    -0.000080470582     0.000125509640
      18       -0.000062008542     0.000151890876    -0.000133602697
      19        0.000031946590    -0.000141268865     0.000125551062
      20        0.000113064672     0.000073334241    -0.000138988283
      21       -0.001774910108    -0.002180414491     0.000266504654
      22       -0.000400152295     0.001695053479    -0.001958496627
      23        0.002146322288    -0.000745172415     0.000357090991
      24       -0.000054499561     0.000017758177     0.000153643529
      25        0.000140425747    -0.000232078182     0.000022098348
      26        0.000328728877    -0.000102931671    -0.000179423248
      27       -0.000750289182    -0.000051276754    -0.000075769532
      28       -0.000077220095     0.000028056626    -0.000017061124
      29        0.000240574516     0.000137665866    -0.000037219899
      30        0.000346049852     0.000342033775     0.000116776572

  **** Optimization is complete! (in 1 steps) ****
    Final optimized geometry and variables:
    Molecular point group: c1

    Geometry (in Angstrom), charge = 0, multiplicity = 1:

    N            0.074114363265    -0.382192667200    -0.245233736048
    C            0.822288916831    -0.308446495694     0.917718984119
    C            2.336486214977    -0.483824458701     0.872769038335
    N            3.100456244049     0.471302609837     0.064944921457
    O            0.292168360433    -0.018908094284     2.004856408762
    H            2.640189786768    -0.348956157887     1.907310438915
    H            2.581795578920    -1.533260317287     0.604685919898
    C           -1.338042202123    -0.089121024250    -0.191875623938
    C           -4.071653477925     0.455577802474    -0.235658657449
    C           -3.554665023910    -0.468979967219     0.671439467076
    C           -3.216901930030     1.110226366734    -1.120297110897
    C           -2.190898220325    -0.748412984562     0.692847426895
    C           -1.850149606903     0.841763449696    -1.094167101922
    C            0.438938486393    -1.267959640478    -1.362015405830
    C            4.527116766815     0.382812638718     0.359468025610
    C            2.833517185320     0.640660552980    -1.353418053017
    H           -4.212634138047    -0.972159593200     1.366950766220
    H           -3.609430009030     1.834637433437    -1.821173684534
    H           -1.784776098544    -1.446341045194     1.408472890731
    H           -1.173329283503     1.358558375864    -1.761823578734
    H           -0.216819940304    -2.147207880089    -1.362870097939
    H            0.326929150539    -0.748858394977    -2.317798069533
    H            1.469179024261    -1.603618101946    -1.270208118668
    H            4.690614250427     0.453848479183     1.435162559737
    H            4.979450424182    -0.561139479595     0.003168461542
    H            3.119272009527    -0.232303919205    -1.968120483055
    H            1.784514599573     0.869762987486    -1.520306628929
    H           -5.131917895735     0.668470893974    -0.248138517058
    H            5.052424650892     1.211732168374    -0.115866448424
    H            3.416122357014     1.493230662432    -1.706439779339

*** Psi4 exiting successfully. Buy a developer a beer!
