                               Psi4 1.5 release

  ==> Input File <==

--------------------------------------------------------------------------
molecule {
0 1
 N   -0.267015    0.173893   -0.690146
 C    0.917670    0.307034   -0.002465
 C    2.194907    0.454375   -0.812160
 N    3.169935   -0.605286   -0.532951
 O    0.945784    0.374488    1.240586
 H    2.003785    0.454725   -1.880340
 H    2.601023    1.451683   -0.558884
 C   -1.512983    0.140275    0.025694
 C   -3.980279    0.062873    1.325659
 C   -2.958283   -0.806156    1.704472
 C   -3.763012    0.976442    0.296919
 C   -1.727279   -0.774249    1.055896
 C   -2.529278    1.020530   -0.347186
 C   -0.325207   -0.046034   -2.142325
 C    4.232001   -0.622724   -1.538862
 C    3.726679   -0.575740    0.823041
 H   -3.118692   -1.513789    2.506262
 H   -4.546731    1.661080    0.002534
 H   -0.930036   -1.436562    1.353951
 H   -2.347900    1.742815   -1.132131
 H   -1.333722   -0.358847   -2.397657
 H   -0.092429    0.858207   -2.708134
 H    0.355570   -0.843216   -2.439173
 H    3.808415   -0.753091   -2.535690
 H    4.835400    0.302748   -1.533127
 H    4.334199    0.331070    0.993753
 H    2.929486   -0.591553    1.557362
 H   -4.935609    0.031809    1.831200
 H    4.898046   -1.462778   -1.343957
 H    4.362064   -1.450557    0.961174
}
memory 8.166666666666666GB
set_num_threads(2)
psi4_io.set_default_path("/scratch/bdw2292/Psi4-25_27_Index_0-farH_in17")
set freeze_core True
E, wfn = energy('wb97x-d/6-311+G*',return_wfn=True)
oeprop(wfn,"WIBERG_LOWDIN_INDICES")
clean()
--------------------------------------------------------------------------

    Molecular point group: c1

    Geometry (in Angstrom), charge = 0, multiplicity = 1:

       Center              X                  Y                   Z               Mass
    ------------   -----------------  -----------------  -----------------  -----------------
         N           -0.267014886953     0.173893014428    -0.690145931038    14.003074004430
         C            0.917670113047     0.307034014428    -0.002464931038    12.000000000000
         C            2.194907113047     0.454375014428    -0.812159931038    12.000000000000
         N            3.169935113047    -0.605285985572    -0.532950931038    14.003074004430
         O            0.945784113047     0.374488014428     1.240586068962    15.994914619570
         H            2.003785113047     0.454725014428    -1.880339931038     1.007825032230
         H            2.601023113047     1.451683014428    -0.558883931038     1.007825032230
         C           -1.512982886953     0.140275014428     0.025694068962    12.000000000000
         C           -3.980278886953     0.062873014428     1.325659068962    12.000000000000
         C           -2.958282886953    -0.806155985572     1.704472068962    12.000000000000
         C           -3.763011886953     0.976442014428     0.296919068962    12.000000000000
         C           -1.727278886953    -0.774248985572     1.055896068962    12.000000000000
         C           -2.529277886953     1.020530014428    -0.347185931038    12.000000000000
         C           -0.325206886953    -0.046033985572    -2.142324931038    12.000000000000
         C            4.232001113047    -0.622723985572    -1.538861931038    12.000000000000
         C            3.726679113047    -0.575739985572     0.823041068962    12.000000000000
         H           -3.118691886953    -1.513788985572     2.506262068962     1.007825032230
         H           -4.546730886953     1.661080014428     0.002534068962     1.007825032230
         H           -0.930035886953    -1.436561985572     1.353951068962     1.007825032230
         H           -2.347899886953     1.742815014428    -1.132130931038     1.007825032230
         H           -1.333721886953    -0.358846985572    -2.397656931038     1.007825032230
         H           -0.092428886953     0.858207014428    -2.708133931038     1.007825032230
         H            0.355570113047    -0.843215985572    -2.439172931038     1.007825032230
         H            3.808415113047    -0.753090985572    -2.535689931038     1.007825032230
         H            4.835400113047     0.302748014428    -1.533126931038     1.007825032230
         H            4.334199113047     0.331070014428     0.993753068962     1.007825032230
         H            2.929486113047    -0.591552985572     1.557362068962     1.007825032230
         H           -4.935608886953     0.031809014428     1.831200068962     1.007825032230
         H            4.898046113047    -1.462777985572    -1.343956931038     1.007825032230
         H            4.362064113047    -1.450556985572     0.961174068962     1.007825032230

  Charge       = 0
  Multiplicity = 1
  Basis Set: 6-311+G*
    Blend: 6-311+G*
  Basis Set: (6-311+G* AUX)
    Blend: HEAVY-AUG-CC-PVTZ-JKFIT

    Orbital Energies [Eh]
    ---------------------

    Doubly Occupied:

       1A    -19.209596     2A    -14.476888     3A    -14.430826
       4A    -10.392941     5A    -10.333270     6A    -10.329258
       7A    -10.320078     8A    -10.301788     9A    -10.294696
      10A    -10.293789    11A    -10.291522    12A    -10.290645
      13A    -10.289616    14A    -10.284288    15A     -1.135633
      16A     -1.048329    17A     -1.022649    18A     -0.959499
      19A     -0.863642    20A     -0.854723    21A     -0.833179
      22A     -0.809227    23A     -0.800641    24A     -0.730955
      25A     -0.710668    26A     -0.691084    27A     -0.651482
      28A     -0.608484    29A     -0.598264    30A     -0.580445
      31A     -0.576692    32A     -0.556678    33A     -0.554245
      34A     -0.535220    35A     -0.533588    36A     -0.519116
      37A     -0.512650    38A     -0.499193    39A     -0.494314
      40A     -0.480065    41A     -0.471009    42A     -0.463725
      43A     -0.451752    44A     -0.449321    45A     -0.446621
      46A     -0.440951    47A     -0.434907    48A     -0.358385
      49A     -0.343386    50A     -0.330907    51A     -0.310136
      52A     -0.296383

  @DF-RKS Final Energy:  -613.45695592147661

   => Energetics <=

    Nuclear Repulsion Energy =            883.9557601614785654
    One-Electron Energy =               -2584.7635462529678989
    Two-Electron Energy =                1147.8995648096260993
    DFT Exchange-Correlation Energy =     -60.5291297068491190
    Empirical Dispersion Energy =          -0.0196049327642761
    VV10 Nonlocal Energy =                  0.0000000000000000
    Total Energy =                       -613.4569559214766059

  Dipole Moment: [D]
     X:    -0.6095      Y:    -0.0154      Z:    -3.5007     Total:     3.5534

*** Psi4 exiting successfully. Buy a developer a beer!
