                               Psi4 1.3.2 release

  ==> Input File <==

--------------------------------------------------------------------------
molecule {
0 1
C          4.10300        0.54460        1.49040
C          3.32760        1.04510        0.55700
N          2.01500        1.48570        1.02620
C          0.81870        0.79670        0.73960
H          2.04670        2.35900        1.59500
C          5.45820        0.01300        1.45740
N          4.75960       -0.28370        3.57990
C          3.68450        0.32970        2.90270
C          5.83990       -0.47630        2.69740
C          3.53340        1.16240       -0.86330
C          3.87280        0.15870       -1.73820
C          3.35530        2.44010       -1.39440
C          4.03720        0.37270       -3.08890
C          3.52170        2.63130       -2.72740
C          3.85900        1.63490       -3.60150
C          0.76840       -0.39010        0.07510
C         -0.38080        1.37730        1.15150
C         -0.45250       -0.99130       -0.17810
C         -1.58120        0.75890        0.88810
C         -1.67290       -0.44230        0.21710
H          4.76100       -0.55540        4.58480
O          2.58000        0.63820        3.39650
H          4.01560       -0.83530       -1.35160
H          3.08980        3.27710       -0.76290
H          4.30510       -0.43950       -3.75400
H          3.38170        3.62370       -3.13930
H          3.98460        1.81640       -4.66570
H          1.69470       -0.88110       -0.25600
H         -0.33620        2.31250        1.67300
H         -0.49600       -1.93920       -0.70890
H         -2.48410        1.26410        1.24600
H          6.05830        0.00180        0.61790
H          6.74980       -0.90370        2.93090
H         -2.57650       -0.90090        0.02180
}
memory 100GB
set_num_threads(12)
psi4_io.set_default_path("/scratch/bdw2292/Psi4-farH_in17")
set maxiter 500
set freeze_core True
set PROPERTIES_ORIGIN ["COM"]
set cubeprop_tasks ['esp']
E, wfn = properties('hf/MINIX',properties=['dipole'],return_wfn=True)
cubeprop(wfn)
fchk(wfn, "farH_in17-esp_frag.fchk")
oeprop(wfn,"WIBERG_LOWDIN_INDICES","MULLIKEN_CHARGES")
clean()
--------------------------------------------------------------------------

    Molecular point group: c1

    Geometry (in Angstrom), charge = 0, multiplicity = 1:

       Center              X                  Y                   Z               Mass
    ------------   -----------------  -----------------  -----------------  -----------------
         C            1.525073948115    -0.092108711847     1.109431530179    12.000000000000
         C            0.749673948115     0.408391288153     0.176031530179    12.000000000000
         N           -0.562926051885     0.848991288153     0.645231530179    14.003074004430
         C           -1.759226051885     0.159991288153     0.358631530179    12.000000000000
         H           -0.531226051885     1.722291288153     1.214031530179     1.007825032230
         C            2.880273948115    -0.623708711847     1.076431530179    12.000000000000
         N            2.181673948115    -0.920408711847     3.198931530179    14.003074004430
         C            1.106573948115    -0.307008711847     2.521731530179    12.000000000000
         C            3.261973948115    -1.113008711847     2.316431530179    12.000000000000
         C            0.955473948115     0.525691288153    -1.244268469821    12.000000000000
         C            1.294873948115    -0.478008711847    -2.119168469821    12.000000000000
         C            0.777373948115     1.803391288153    -1.775368469821    12.000000000000
         C            1.459273948115    -0.264008711847    -3.469868469821    12.000000000000
         C            0.943773948115     1.994591288153    -3.108368469821    12.000000000000
         C            1.281073948115     0.998191288153    -3.982468469821    12.000000000000
         C           -1.809526051885    -1.026808711847    -0.305868469821    12.000000000000
         C           -2.958726051885     0.740591288153     0.770531530179    12.000000000000
         C           -3.030426051885    -1.628008711847    -0.559068469821    12.000000000000
         C           -4.159126051885     0.122191288153     0.507131530179    12.000000000000
         C           -4.250826051885    -1.079008711847    -0.163868469821    12.000000000000
         H            2.183073948115    -1.192108711847     4.203831530179     1.007825032230
         O            0.002073948115     0.001491288153     3.015531530179    15.994914619570
         H            1.437673948115    -1.472008711847    -1.732568469821     1.007825032230
         H            0.511873948115     2.640391288153    -1.143868469821     1.007825032230
         H            1.727173948115    -1.076208711847    -4.134968469821     1.007825032230
         H            0.803773948115     2.986991288153    -3.520268469821     1.007825032230
         H            1.406673948115     1.179691288153    -5.046668469821     1.007825032230
         H           -0.883226051885    -1.517808711847    -0.636968469821     1.007825032230
         H           -2.914126051885     1.675791288153     1.292031530179     1.007825032230
         H           -3.073926051885    -2.575908711847    -1.089868469821     1.007825032230
         H           -5.062026051885     0.627391288153     0.865031530179     1.007825032230
         H            3.480373948115    -0.634908711847     0.236931530179     1.007825032230
         H            4.171873948115    -1.540408711847     2.549931530179     1.007825032230
         H           -5.154426051885    -1.537608711847    -0.359168469821     1.007825032230

  Charge       = 0
  Multiplicity = 1
  Basis Set: MINIX
    Blend: MINIX
  Basis Set: (MINIX AUX)
    Blend: DEF2-SVP-JKFIT

    Orbital Energies [Eh]
    ---------------------

    Doubly Occupied:

       1A    -20.305679     2A    -15.457456     3A    -15.399568
       4A    -11.321015     5A    -11.246644     6A    -11.235359
       7A    -11.231539     8A    -11.206038     9A    -11.199021
      10A    -11.188533    11A    -11.187933    12A    -11.187127
      13A    -11.185135    14A    -11.182173    15A    -11.165397
      16A    -11.164956    17A    -11.158120    18A    -11.151029
      19A    -11.148906    20A    -11.148240    21A     -1.368408
      22A     -1.257950    23A     -1.233384    24A     -1.186130
      25A     -1.145606    26A     -1.087493    27A     -1.049985
      28A     -1.037080    29A     -1.009155    30A     -1.006055
      31A     -0.975483    32A     -0.907738    33A     -0.842387
      34A     -0.837951    35A     -0.821565    36A     -0.805184
      37A     -0.793641    38A     -0.750260    39A     -0.713586
      40A     -0.704997    41A     -0.697328    42A     -0.660812
      43A     -0.655070    44A     -0.647372    45A     -0.632136
      46A     -0.613420    47A     -0.608610    48A     -0.597886
      49A     -0.597337    50A     -0.590081    51A     -0.585185
      52A     -0.570192    53A     -0.567784    54A     -0.552819
      55A     -0.537296    56A     -0.529515    57A     -0.511775
      58A     -0.501510    59A     -0.489886    60A     -0.463105
      61A     -0.451111    62A     -0.445820    63A     -0.427631
      64A     -0.392264    65A     -0.365242    66A     -0.360985
      67A     -0.339348    68A     -0.297467    69A     -0.273529

  @DF-RHF Final Energy:  -829.84847428864634

   => Energetics <=

    Nuclear Repulsion Energy =           1433.8849803214384337
    One-Electron Energy =               -3975.5340980484511419
    Two-Electron Energy =                1711.8006434383664782
    Total Energy =                       -829.8484742886462300

  Dipole Moment: [D]
     X:     3.5848      Y:    -0.0111      Z:    -0.4499     Total:     3.6130

  Basis Set: MINIX
    Blend: MINIX

  Mulliken Charges: (a.u.)
   Center  Symbol    Alpha    Beta     Spin     Total
       1     C     3.02651  3.02651  0.00000 -0.05303
       2     C     2.93608  2.93608  0.00000  0.12783
       3     N     3.69060  3.69060  0.00000 -0.38120
       4     C     2.93917  2.93917  0.00000  0.12167
       5     H     0.37157  0.37157  0.00000  0.25685
       6     C     3.09140  3.09140  0.00000 -0.18279
       7     N     3.70294  3.70294  0.00000 -0.40588
       8     C     2.80609  2.80609  0.00000  0.38783
       9     C     3.00717  3.00717  0.00000 -0.01434
      10     C     3.01528  3.01528  0.00000 -0.03055
      11     C     3.06416  3.06416  0.00000 -0.12833
      12     C     3.05875  3.05875  0.00000 -0.11750
      13     C     3.06904  3.06904  0.00000 -0.13808
      14     C     3.07105  3.07105  0.00000 -0.14211
      15     C     3.06734  3.06734  0.00000 -0.13467
      16     C     3.08643  3.08643  0.00000 -0.17286
      17     C     3.08021  3.08021  0.00000 -0.16042
      18     C     3.05847  3.05847  0.00000 -0.11694
      19     C     3.06145  3.06145  0.00000 -0.12290
      20     C     3.08918  3.08918  0.00000 -0.17836
      21     H     0.35965  0.35965  0.00000  0.28070
      22     O     4.19716  4.19716  0.00000 -0.39432
      23     H     0.42796  0.42796  0.00000  0.14407
      24     H     0.42723  0.42723  0.00000  0.14554
      25     H     0.42775  0.42775  0.00000  0.14450
      26     H     0.42927  0.42927  0.00000  0.14146
      27     H     0.42663  0.42663  0.00000  0.14674
      28     H     0.43117  0.43117  0.00000  0.13766
      29     H     0.43381  0.43381  0.00000  0.13238
      30     H     0.43239  0.43239  0.00000  0.13522
      31     H     0.43184  0.43184  0.00000  0.13633
      32     H     0.43041  0.43041  0.00000  0.13919
      33     H     0.41976  0.41976  0.00000  0.16049
      34     H     0.43209  0.43209  0.00000  0.13583

   Total alpha = 69.00000, Total beta = 69.00000, Total charge =  0.00000

*** Psi4 exiting successfully. Buy a developer a beer!
