                               Psi4 1.3.2 release

  ==> Input File <==

--------------------------------------------------------------------------
molecule {
0 1
C          0.76840       -0.39010        0.07510
C          0.81870        0.79670        0.73960
N          2.01500        1.48570        1.02620
H          2.04670        2.35900        1.59500
C          3.32760        1.04510        0.55700
C         -0.38080        1.37730        1.15150
C         -0.45250       -0.99130       -0.17810
C         -1.58120        0.75890        0.88810
C         -1.67290       -0.44230        0.21710
H          1.69470       -0.88110       -0.25600
H         -0.33620        2.31250        1.67300
H         -0.49600       -1.93920       -0.70890
H         -2.48410        1.26410        1.24600
N         -2.88880       -1.10540       -0.07100
C          3.53340        1.16240       -0.86330
C          3.87280        0.15870       -1.73820
C          3.35530        2.44010       -1.39440
C          4.03720        0.37270       -3.08890
C          3.52170        2.63130       -2.72740
C          3.85900        1.63490       -3.60150
H          4.01560       -0.83530       -1.35160
H          3.08980        3.27710       -0.76290
H          4.30510       -0.43950       -3.75400
H          3.38170        3.62370       -3.13930
H          3.98460        1.81640       -4.66570
H          3.44930        0.01690        0.82690
H          4.04440        1.69140        1.01890
H         -2.87930       -1.96260       -0.55510
H         -3.74450       -0.70970        0.21260
}
memory 100GB
set_num_threads(12)
psi4_io.set_default_path("/scratch/bdw2292/Psi4-farH_in17")
set maxiter 500
set freeze_core True
set PROPERTIES_ORIGIN ["COM"]
set cubeprop_tasks ['esp']
E, wfn = properties('hf/MINIX',properties=['dipole'],return_wfn=True)
cubeprop(wfn)
fchk(wfn, "farH_in17-esp_frag.fchk")
oeprop(wfn,"WIBERG_LOWDIN_INDICES","MULLIKEN_CHARGES")
clean()
--------------------------------------------------------------------------

    Molecular point group: c1

    Geometry (in Angstrom), charge = 0, multiplicity = 1:

       Center              X                  Y                   Z               Mass
    ------------   -----------------  -----------------  -----------------  -----------------
         C           -0.665476157341    -1.105070803205     0.654931002738    12.000000000000
         C           -0.615176157341     0.081729196795     1.319431002738    12.000000000000
         N            0.581123842659     0.770729196795     1.606031002738    14.003074004430
         H            0.612823842659     1.644029196795     2.174831002738     1.007825032230
         C            1.893723842659     0.330129196795     1.136831002738    12.000000000000
         C           -1.814676157341     0.662329196795     1.731331002738    12.000000000000
         C           -1.886376157341    -1.706270803205     0.401731002738    12.000000000000
         C           -3.015076157341     0.043929196795     1.467931002738    12.000000000000
         C           -3.106776157341    -1.157270803205     0.796931002738    12.000000000000
         H            0.260823842659    -1.596070803205     0.323831002738     1.007825032230
         H           -1.770076157341     1.597529196795     2.252831002738     1.007825032230
         H           -1.929876157341    -2.654170803205    -0.129068997262     1.007825032230
         H           -3.917976157341     0.549129196795     1.825831002738     1.007825032230
         N           -4.322676157341    -1.820370803205     0.508831002738    14.003074004430
         C            2.099523842659     0.447429196795    -0.283468997262    12.000000000000
         C            2.438923842659    -0.556270803205    -1.158368997262    12.000000000000
         C            1.921423842659     1.725129196795    -0.814568997262    12.000000000000
         C            2.603323842659    -0.342270803205    -2.509068997262    12.000000000000
         C            2.087823842659     1.916329196795    -2.147568997262    12.000000000000
         C            2.425123842659     0.919929196795    -3.021668997262    12.000000000000
         H            2.581723842659    -1.550270803205    -0.771768997262     1.007825032230
         H            1.655923842659     2.562129196795    -0.183068997262     1.007825032230
         H            2.871223842659    -1.154470803205    -3.174168997262     1.007825032230
         H            1.947823842659     2.908729196795    -2.559468997262     1.007825032230
         H            2.550723842659     1.101429196795    -4.085868997262     1.007825032230
         H            2.015423842659    -0.698070803205     1.406731002738     1.007825032230
         H            2.610523842659     0.976429196795     1.598731002738     1.007825032230
         H           -4.313176157341    -2.677570803205     0.024731002738     1.007825032230
         H           -5.178376157341    -1.424670803205     0.792431002738     1.007825032230

  Charge       = 0
  Multiplicity = 1
  Basis Set: MINIX
    Blend: MINIX
  Basis Set: (MINIX AUX)
    Blend: DEF2-SVP-JKFIT

    Orbital Energies [Eh]
    ---------------------

    Doubly Occupied:

       1A    -15.381960     2A    -15.378489     3A    -11.212841
       4A    -11.212095     5A    -11.208094     6A    -11.182862
       7A    -11.173439     8A    -11.171354     9A    -11.169602
      10A    -11.169184    11A    -11.166479    12A    -11.154572
      13A    -11.152453    14A    -11.151451    15A    -11.149723
      16A     -1.220673    17A     -1.190067    18A     -1.169330
      19A     -1.111993    20A     -1.051141    21A     -1.024174
      22A     -1.007501    23A     -0.979142    24A     -0.913331
      25A     -0.832516    26A     -0.827360    27A     -0.806581
      28A     -0.779053    29A     -0.711599    30A     -0.704301
      31A     -0.682742    32A     -0.661896    33A     -0.646996
      34A     -0.625724    35A     -0.618907    36A     -0.599483
      37A     -0.588995    38A     -0.582454    39A     -0.572975
      40A     -0.564166    41A     -0.551711    42A     -0.537798
      43A     -0.527127    44A     -0.506988    45A     -0.498263
      46A     -0.477608    47A     -0.465216    48A     -0.457787
      49A     -0.376654    50A     -0.352353    51A     -0.342858
      52A     -0.337599    53A     -0.248534

  @DF-RHF Final Energy:  -605.12586602839372

   => Energetics <=

    Nuclear Repulsion Energy =            909.2127437247738726
    One-Electron Energy =               -2624.3008260971173513
    Two-Electron Energy =                1109.9622163439498763
    Total Energy =                       -605.1258660283936024

  Dipole Moment: [D]
     X:    -0.0999      Y:     0.2484      Z:     0.2247     Total:     0.3495

  Basis Set: MINIX
    Blend: MINIX

  Mulliken Charges: (a.u.)
   Center  Symbol    Alpha    Beta     Spin     Total
       1     C     3.08108  3.08108  0.00000 -0.16215
       2     C     2.95451  2.95451  0.00000  0.09097
       3     N     3.69785  3.69785  0.00000 -0.39570
       4     H     0.38292  0.38292  0.00000  0.23416
       5     C     3.07192  3.07192  0.00000 -0.14384
       6     C     3.07666  3.07666  0.00000 -0.15332
       7     C     3.07309  3.07309  0.00000 -0.14619
       8     C     3.07678  3.07678  0.00000 -0.15357
       9     C     2.95684  2.95684  0.00000  0.08633
      10     H     0.43134  0.43134  0.00000  0.13732
      11     H     0.43527  0.43527  0.00000  0.12945
      12     H     0.43678  0.43678  0.00000  0.12645
      13     H     0.43523  0.43523  0.00000  0.12954
      14     N     3.76044  3.76044  0.00000 -0.52088
      15     C     3.00816  3.00816  0.00000 -0.01633
      16     C     3.07062  3.07062  0.00000 -0.14125
      17     C     3.06429  3.06429  0.00000 -0.12857
      18     C     3.06893  3.06893  0.00000 -0.13787
      19     C     3.07093  3.07093  0.00000 -0.14186
      20     C     3.07182  3.07182  0.00000 -0.14364
      21     H     0.43384  0.43384  0.00000  0.13232
      22     H     0.43198  0.43198  0.00000  0.13604
      23     H     0.43001  0.43001  0.00000  0.13997
      24     H     0.43186  0.43186  0.00000  0.13627
      25     H     0.42933  0.42933  0.00000  0.14133
      26     H     0.43157  0.43157  0.00000  0.13686
      27     H     0.42721  0.42721  0.00000  0.14558
      28     H     0.37914  0.37914  0.00000  0.24172
      29     H     0.37958  0.37958  0.00000  0.24084

   Total alpha = 53.00000, Total beta = 53.00000, Total charge = -0.00000

*** Psi4 exiting successfully. Buy a developer a beer!
