                               Psi4 1.3.2 release

  ==> Input File <==

--------------------------------------------------------------------------
molecule {
0 1
H         -5.54410       -2.13730        0.30810
C         -5.39960       -1.30330       -0.41360
C         -4.15550       -0.51950       -0.13450
O         -4.29600        0.70990        0.04690
N         -2.88880       -1.10540       -0.07100
N         -6.53810       -0.48150       -0.39510
H         -5.24070       -1.74240       -1.43810
H         -2.78670       -2.07390       -0.21500
H         -2.09830       -0.54970        0.11770
H         -7.36670       -1.04410       -0.58820
H         -6.44580        0.24330       -1.10680
}
memory 100GB
set_num_threads(12)
psi4_io.set_default_path("/scratch/bdw2292/Psi4-farH_in17")
set maxiter 500
set freeze_core True
set PROPERTIES_ORIGIN ["COM"]
set cubeprop_tasks ['esp']
E, wfn = properties('hf/MINIX',properties=['dipole'],return_wfn=True)
cubeprop(wfn)
fchk(wfn, "farH_in17-esp_frag.fchk")
oeprop(wfn,"WIBERG_LOWDIN_INDICES","MULLIKEN_CHARGES")
clean()
--------------------------------------------------------------------------

    Molecular point group: c1

    Geometry (in Angstrom), charge = 0, multiplicity = 1:

       Center              X                  Y                   Z               Mass
    ------------   -----------------  -----------------  -----------------  -----------------
         H           -0.883692268111    -1.595738632734     0.514709709113     1.007825032230
         C           -0.739192268111    -0.761738632734    -0.206990290887    12.000000000000
         C            0.504907731889     0.022061367266     0.072109709113    12.000000000000
         O            0.364407731889     1.251461367266     0.253509709113    15.994914619570
         N            1.771607731889    -0.563838632734     0.135609709113    14.003074004430
         N           -1.877692268111     0.060061367266    -0.188490290887    14.003074004430
         H           -0.580292268111    -1.200838632734    -1.231490290887     1.007825032230
         H            1.873707731889    -1.532338632734    -0.008390290887     1.007825032230
         H            2.562107731889    -0.008138632734     0.324309709113     1.007825032230
         H           -2.706292268111    -0.502538632734    -0.381590290887     1.007825032230
         H           -1.785392268111     0.784861367266    -0.900190290887     1.007825032230

  Charge       = 0
  Multiplicity = 1
  Basis Set: MINIX
    Blend: MINIX
  Basis Set: (MINIX AUX)
    Blend: DEF2-SVP-JKFIT

    Orbital Energies [Eh]
    ---------------------

    Doubly Occupied:

       1A    -20.270944     2A    -15.416969     3A    -15.368819
       4A    -11.309468     5A    -11.217257     6A     -1.353313
       7A     -1.188119     8A     -1.176296     9A     -0.945318
      10A     -0.765533    11A     -0.714120    12A     -0.684544
      13A     -0.649235    14A     -0.578966    15A     -0.574162
      16A     -0.526511    17A     -0.507646    18A     -0.392287
      19A     -0.373285    20A     -0.366975

  @DF-RHF Final Energy:  -261.14366083965569

   => Energetics <=

    Nuclear Repulsion Energy =            180.1850137385004018
    One-Electron Energy =                -713.8978301009981351
    Two-Electron Energy =                 272.5691555228420384
    Total Energy =                       -261.1436608396556949

  Dipole Moment: [D]
     X:     0.7977      Y:    -3.9020      Z:    -1.9299     Total:     4.4257

  Basis Set: MINIX
    Blend: MINIX

  Mulliken Charges: (a.u.)
   Center  Symbol    Alpha    Beta     Spin     Total
       1     H     0.42653  0.42653  0.00000  0.14695
       2     C     3.07738  3.07738  0.00000 -0.15476
       3     C     2.81048  2.81048  0.00000  0.37904
       4     O     4.20990  4.20990  0.00000 -0.41980
       5     N     3.76461  3.76461  0.00000 -0.52921
       6     N     3.74437  3.74437  0.00000 -0.48874
       7     H     0.44093  0.44093  0.00000  0.11813
       8     H     0.37591  0.37591  0.00000  0.24818
       9     H     0.36576  0.36576  0.00000  0.26848
      10     H     0.39538  0.39538  0.00000  0.20925
      11     H     0.38875  0.38875  0.00000  0.22250

   Total alpha = 20.00000, Total beta = 20.00000, Total charge = -0.00000

*** Psi4 exiting successfully. Buy a developer a beer!
