                               Psi4 1.3.2 release

  ==> Input File <==

--------------------------------------------------------------------------
molecule {
0 1
O         -4.29600        0.70990        0.04690
C         -4.15550       -0.51950       -0.13450
N         -2.88880       -1.10540       -0.07100
C         -1.67290       -0.44230        0.21710
C         -2.79090       -2.55700       -0.33120
C         -0.45250       -0.99130       -0.17810
C          0.81870        0.79670        0.73960
C          0.76840       -0.39010        0.07510
C         -0.38080        1.37730        1.15150
C         -1.58120        0.75890        0.88810
C         -5.39960       -1.30330       -0.41360
H         -2.17240       -3.04390        0.42450
H         -2.33400       -2.65370       -1.32860
H         -3.80720       -3.03690       -0.27370
H         -0.49600       -1.93920       -0.70890
H          1.69470       -0.88110       -0.25600
H         -0.33620        2.31250        1.67300
H         -2.48410        1.26410        1.24600
H         -5.54410       -2.13730        0.30810
H         -5.24070       -1.74240       -1.43810
N          2.01500        1.48570        1.02620
N         -6.53810       -0.48150       -0.39510
H          2.04670        2.35900        1.59500
H          2.86020        1.12530        0.67260
H         -6.66320       -0.09490        0.54050
H         -7.35880       -1.03180       -0.64810
}
memory 100GB
set_num_threads(12)
psi4_io.set_default_path("/scratch/bdw2292/Psi4-farH_in17")
set maxiter 500
set freeze_core True
set PROPERTIES_ORIGIN ["COM"]
set cubeprop_tasks ['esp']
E, wfn = properties('hf/MINIX',properties=['dipole'],return_wfn=True)
cubeprop(wfn)
fchk(wfn, "farH_in17-esp_frag.fchk")
oeprop(wfn,"WIBERG_LOWDIN_INDICES","MULLIKEN_CHARGES")
clean()
--------------------------------------------------------------------------

    Molecular point group: c1

    Geometry (in Angstrom), charge = 0, multiplicity = 1:

       Center              X                  Y                   Z               Mass
    ------------   -----------------  -----------------  -----------------  -----------------
         O           -2.170286783936     0.927001556080    -0.146179764141    15.994914619570
         C           -2.029786783936    -0.302398443920    -0.327579764141    12.000000000000
         N           -0.763086783936    -0.888298443920    -0.264079764141    14.003074004430
         C            0.452813216064    -0.225198443920     0.024020235859    12.000000000000
         C           -0.665186783936    -2.339898443920    -0.524279764141    12.000000000000
         C            1.673213216064    -0.774198443920    -0.371179764141    12.000000000000
         C            2.944413216064     1.013801556080     0.546520235859    12.000000000000
         C            2.894113216064    -0.172998443920    -0.117979764141    12.000000000000
         C            1.744913216064     1.594401556080     0.958420235859    12.000000000000
         C            0.544513216064     0.976001556080     0.695020235859    12.000000000000
         C           -3.273886783936    -1.086198443920    -0.606679764141    12.000000000000
         H           -0.046686783936    -2.826798443920     0.231420235859     1.007825032230
         H           -0.208286783936    -2.436598443920    -1.521679764141     1.007825032230
         H           -1.681486783936    -2.819798443920    -0.466779764141     1.007825032230
         H            1.629713216064    -1.722098443920    -0.901979764141     1.007825032230
         H            3.820413216064    -0.663998443920    -0.449079764141     1.007825032230
         H            1.789513216064     2.529601556080     1.479920235859     1.007825032230
         H           -0.358386783936     1.481201556080     1.052920235859     1.007825032230
         H           -3.418386783936    -1.920198443920     0.115020235859     1.007825032230
         H           -3.114986783936    -1.525298443920    -1.631179764141     1.007825032230
         N            4.140713216064     1.702801556080     0.833120235859    14.003074004430
         N           -4.412386783936    -0.264398443920    -0.588179764141    14.003074004430
         H            4.172413216064     2.576101556080     1.401920235859     1.007825032230
         H            4.985913216064     1.342401556080     0.479520235859     1.007825032230
         H           -4.537486783936     0.122201556080     0.347420235859     1.007825032230
         H           -5.233086783936    -0.814698443920    -0.841179764141     1.007825032230

  Charge       = 0
  Multiplicity = 1
  Basis Set: MINIX
    Blend: MINIX
  Basis Set: (MINIX AUX)
    Blend: DEF2-SVP-JKFIT

    Orbital Energies [Eh]
    ---------------------

    Doubly Occupied:

       1A    -20.270972     2A    -15.445737     3A    -15.381420
       4A    -15.368590     5A    -11.305217     6A    -11.226042
       7A    -11.217962     8A    -11.214609     9A    -11.207105
      10A    -11.165244    11A    -11.161732    12A    -11.157891
      13A    -11.151364    14A     -1.357118    15A     -1.238770
      16A     -1.196313    17A     -1.188731    18A     -1.117268
      19A     -1.014778    20A     -0.999846    21A     -0.954537
      22A     -0.927394    23A     -0.832791    24A     -0.813554
      25A     -0.745674    26A     -0.704006    27A     -0.687862
      28A     -0.674720    29A     -0.660214    30A     -0.639439
      31A     -0.627509    32A     -0.613213    33A     -0.591880
      34A     -0.579564    35A     -0.577703    36A     -0.562763
      37A     -0.547291    38A     -0.544744    39A     -0.533441
      40A     -0.503284    41A     -0.499398    42A     -0.471802
      43A     -0.446399    44A     -0.384022    45A     -0.370854
      46A     -0.364034    47A     -0.344558    48A     -0.264715

  @DF-RHF Final Energy:  -582.51482065175787

   => Energetics <=

    Nuclear Repulsion Energy =            776.5218005912606714
    One-Electron Energy =               -2334.3651208067199150
    Two-Electron Energy =                 975.3284995637013708
    Total Energy =                       -582.5148206517578728

  Dipole Moment: [D]
     X:     1.0205      Y:    -3.8899      Z:     0.9435     Total:     4.1308

  Basis Set: MINIX
    Blend: MINIX

  Mulliken Charges: (a.u.)
   Center  Symbol    Alpha    Beta     Spin     Total
       1     O     4.20687  4.20687  0.00000 -0.41374
       2     C     2.80943  2.80943  0.00000  0.38114
       3     N     3.65936  3.65936  0.00000 -0.31872
       4     C     2.96114  2.96114  0.00000  0.07772
       5     C     3.11991  3.11991  0.00000 -0.23982
       6     C     3.06687  3.06687  0.00000 -0.13374
       7     C     2.94822  2.94822  0.00000  0.10356
       8     C     3.08613  3.08613  0.00000 -0.17227
       9     C     3.08006  3.08006  0.00000 -0.16012
      10     C     3.06423  3.06423  0.00000 -0.12846
      11     C     3.07673  3.07673  0.00000 -0.15346
      12     H     0.43034  0.43034  0.00000  0.13931
      13     H     0.43298  0.43298  0.00000  0.13403
      14     H     0.43089  0.43089  0.00000  0.13822
      15     H     0.43406  0.43406  0.00000  0.13188
      16     H     0.43320  0.43320  0.00000  0.13359
      17     H     0.43372  0.43372  0.00000  0.13257
      18     H     0.41565  0.41565  0.00000  0.16869
      19     H     0.44043  0.44043  0.00000  0.11915
      20     H     0.42676  0.42676  0.00000  0.14649
      21     N     3.75279  3.75279  0.00000 -0.50558
      22     N     3.74418  3.74418  0.00000 -0.48836
      23     H     0.37897  0.37897  0.00000  0.24207
      24     H     0.38220  0.38220  0.00000  0.23560
      25     H     0.38953  0.38953  0.00000  0.22095
      26     H     0.39535  0.39535  0.00000  0.20930

   Total alpha = 48.00000, Total beta = 48.00000, Total charge = -0.00000

*** Psi4 exiting successfully. Buy a developer a beer!
