                               Psi4 1.5 release

  ==> Input File <==

--------------------------------------------------------------------------
molecule {
0 1
 C   -0.617552   -0.330072    0.262939
 N    0.430668   -1.143572   -0.041655
 C    1.689201   -0.720939   -0.559771
 C    2.480379    0.180415    0.153576
 H    0.332519   -2.106851    0.289686
 C    2.161085   -1.269249   -1.752195
 C   -1.652912   -0.821580    1.029100
 N   -2.821138   -2.308047    2.267723
 C   -2.914886   -0.217897    1.434762
 C   -1.640271   -2.175805    1.568951
 C   -3.585102   -1.130706    2.174142
 C   -0.611451    1.065103   -0.246564
 C   -0.860590    2.133734    0.620538
 C   -0.373635    1.323927   -1.600909
 C   -0.860680    3.441344    0.142230
 C   -0.381205    2.629945   -2.077410
 C   -0.621288    3.692020   -1.206779
 C    3.720471    0.563574   -0.347346
 C    3.409758   -0.895382   -2.242416
 C    4.189047    0.026008   -1.545039
 H    2.114062    0.578591    1.089348
 H    1.543345   -1.977625   -2.287314
 H   -3.083729   -3.150105    2.741540
 O   -0.761574   -3.076103    1.430927
 H   -1.036439    1.936264    1.669066
 H   -0.185637    0.502070   -2.277182
 H   -1.043403    4.261740    0.822751
 H   -0.198448    2.818688   -3.126171
 H   -0.621971    4.707630   -1.578266
 H    4.324974    1.270969    0.203517
 H    3.772397   -1.321525   -3.167763
 H   -3.260848    0.767348    1.178020
 H   -4.547432   -1.063768    2.648674
 H    5.155851    0.319575   -1.929844
}
memory 8.166666666666666GB
set_num_threads(2)
psi4_io.set_default_path("/scratch/bdw2292/Psi4-1_16_Index_0-farH_in17")
set freeze_core True
E, wfn = energy('wb97x-d/6-311+G*',return_wfn=True)
oeprop(wfn,"WIBERG_LOWDIN_INDICES")
clean()
--------------------------------------------------------------------------

    Molecular point group: c1

    Geometry (in Angstrom), charge = 0, multiplicity = 1:

       Center              X                  Y                   Z               Mass
    ------------   -----------------  -----------------  -----------------  -----------------
         C           -0.617551924437    -0.330072091900     0.262939075541    12.000000000000
         N            0.430668075563    -1.143572091900    -0.041654924459    14.003074004430
         C            1.689201075563    -0.720939091900    -0.559770924459    12.000000000000
         C            2.480379075563     0.180414908100     0.153576075541    12.000000000000
         H            0.332519075563    -2.106851091900     0.289686075541     1.007825032230
         C            2.161085075563    -1.269249091900    -1.752194924459    12.000000000000
         C           -1.652911924437    -0.821580091900     1.029100075541    12.000000000000
         N           -2.821137924437    -2.308047091900     2.267723075541    14.003074004430
         C           -2.914885924437    -0.217897091900     1.434762075541    12.000000000000
         C           -1.640270924437    -2.175805091900     1.568951075541    12.000000000000
         C           -3.585101924437    -1.130706091900     2.174142075541    12.000000000000
         C           -0.611450924437     1.065102908100    -0.246563924459    12.000000000000
         C           -0.860589924437     2.133733908100     0.620538075541    12.000000000000
         C           -0.373634924437     1.323926908100    -1.600908924459    12.000000000000
         C           -0.860679924437     3.441343908100     0.142230075541    12.000000000000
         C           -0.381204924437     2.629944908100    -2.077409924459    12.000000000000
         C           -0.621287924437     3.692019908100    -1.206778924459    12.000000000000
         C            3.720471075563     0.563573908100    -0.347345924459    12.000000000000
         C            3.409758075563    -0.895382091900    -2.242415924459    12.000000000000
         C            4.189047075563     0.026007908100    -1.545038924459    12.000000000000
         H            2.114062075563     0.578590908100     1.089348075541     1.007825032230
         H            1.543345075563    -1.977625091900    -2.287313924459     1.007825032230
         H           -3.083728924437    -3.150105091900     2.741540075541     1.007825032230
         O           -0.761573924437    -3.076103091900     1.430927075541    15.994914619570
         H           -1.036438924437     1.936263908100     1.669066075541     1.007825032230
         H           -0.185636924437     0.502069908100    -2.277181924459     1.007825032230
         H           -1.043402924437     4.261739908100     0.822751075541     1.007825032230
         H           -0.198447924437     2.818687908100    -3.126170924459     1.007825032230
         H           -0.621970924437     4.707629908100    -1.578265924459     1.007825032230
         H            4.324974075563     1.270968908100     0.203517075541     1.007825032230
         H            3.772397075563    -1.321525091900    -3.167762924459     1.007825032230
         H           -3.260847924437     0.767347908100     1.178020075541     1.007825032230
         H           -4.547431924437    -1.063768091900     2.648674075541     1.007825032230
         H            5.155851075563     0.319574908100    -1.929843924459     1.007825032230

  Charge       = 0
  Multiplicity = 1
  Basis Set: 6-311+G*
    Blend: 6-311+G*
  Basis Set: (6-311+G* AUX)
    Blend: HEAVY-AUG-CC-PVTZ-JKFIT

    Orbital Energies [Eh]
    ---------------------

    Doubly Occupied:

       1A    -19.202619     2A    -14.464506     3A    -14.462903
       4A    -10.375296     5A    -10.362717     6A    -10.338032
       7A    -10.314868     8A    -10.314522     9A    -10.303016
      10A    -10.302822    11A    -10.302050    12A    -10.301041
      13A    -10.300391    14A    -10.298974    15A    -10.298239
      16A    -10.297366    17A    -10.296861    18A    -10.296307
      19A    -10.279915    20A    -10.277427    21A     -1.120250
      22A     -1.066649    23A     -1.045604    24A     -0.977904
      25A     -0.964444    26A     -0.906690    27A     -0.870050
      28A     -0.861684    29A     -0.859333    30A     -0.853663
      31A     -0.812259    32A     -0.765640    33A     -0.723991
      34A     -0.719045    35A     -0.716578    36A     -0.693927
      37A     -0.678581    38A     -0.666124    39A     -0.636295
      40A     -0.617765    41A     -0.596900    42A     -0.582072
      43A     -0.579563    44A     -0.563628    45A     -0.554637
      46A     -0.544990    47A     -0.535994    48A     -0.524113
      49A     -0.519996    50A     -0.518129    51A     -0.511858
      52A     -0.508132    53A     -0.495363    54A     -0.478714
      55A     -0.474329    56A     -0.469513    57A     -0.452487
      58A     -0.450466    59A     -0.443833    60A     -0.440727
      61A     -0.425637    62A     -0.402578    63A     -0.359094
      64A     -0.345032    65A     -0.341287    66A     -0.337188
      67A     -0.331925    68A     -0.316089    69A     -0.259442

  @DF-RKS Final Energy:  -840.87101864246165

   => Energetics <=

    Nuclear Repulsion Energy =           1430.0581913369494487
    One-Electron Energy =               -3979.0437769954014584
    Two-Electron Energy =                1790.8234933751650715
    DFT Exchange-Correlation Energy =     -82.6844104460618183
    Empirical Dispersion Energy =          -0.0245159131129560
    VV10 Nonlocal Energy =                  0.0000000000000000
    Total Energy =                       -840.8710186424615358

  Dipole Moment: [D]
     X:    -0.1206      Y:     3.3264      Z:    -1.0026     Total:     3.4763

*** Psi4 exiting successfully. Buy a developer a beer!
