                               Psi4 1.5 release

  ==> Input File <==

--------------------------------------------------------------------------
molecule {
0 1
 C   -0.567700   -0.170627    0.300417
 N    0.639124   -0.869512    0.292128
 C    1.930906   -0.613884   -0.249304
 C    2.942318   -1.593828   -0.036821
 H    0.635867   -1.626997    1.002027
 C    2.294557    0.591018   -0.908751
 C   -1.570834   -0.571001    1.197996
 N   -2.578143   -1.705945    2.897713
 C   -2.938932   -0.121882    1.335316
 C   -1.385505   -1.624076    2.222384
 C   -3.505439   -0.810584    2.362974
 C   -0.834363    0.899431   -0.699373
 C   -1.301559    2.174681   -0.289482
 C   -0.734141    0.620749   -2.087917
 C   -1.618957    3.153329   -1.240334
 C   -1.048267    1.605207   -3.033557
 C   -1.489446    2.877446   -2.616756
 C    4.244176   -1.395827   -0.516541
 C    3.599630    0.776858   -1.387525
 C    4.582771   -0.213621   -1.201655
 H    2.706797   -2.517322    0.498542
 H    1.579150    1.398345   -1.048944
 H   -2.721160   -2.347486    3.663871
 O   -0.364623   -2.322691    2.449219
 H   -1.407211    2.392454    0.775123
 H   -0.409271   -0.368417   -2.416476
 H   -1.966861    4.134214   -0.911864
 H   -0.950392    1.383397   -4.097566
 H   -1.732602    3.642897   -3.355909
 H    4.997333   -2.169024   -0.354786
 H    3.850142    1.703927   -1.906361
 H   -3.436416    0.628777    0.736843
 H   -4.503684   -0.750803    2.773289
 H    5.595893   -0.063860   -1.579030
}
set optking {
  frozen_dihedral = ("
    1 2 3 4
    2 1 12 13
    7 1 2 3
  ")
}
set {
  geom_maxiter 400
  g_convergence GAU_LOOSE
  dynamic_level 1
}
memory 8.166666666666666GB
set_num_threads(2)
psi4_io.set_default_path("/scratch/bdw2292/Psi4-1_16_Index_0-farH_in17")
for _ in range(1):
  try:
    set opt_coordinates both
    optimize('wb97x-d/6-311G')
    break
  except OptimizationConvergenceError:
    break
  else:
    try:
      set opt_coordinates cartesian
      optimize('wb97x-d/6-311G')
      break
    except OptimizationConvergenceError:
      pass
clean()
--------------------------------------------------------------------------

    Molecular point group: c1
  Charge       = 0
  Multiplicity = 1
  Basis Set: 6-311G
    Blend: 6-311G
  Basis Set: (6-311G AUX)
    Blend: CC-PVTZ-JKFIT
  @DF-RKS Final Energy:  -840.64657736409981
    Total Energy =                       -840.6465773640998123
    Molecular point group: c1
  Basis Set: 6-311G
    Blend: 6-311G
  Basis Set: (6-311G AUX)
    Blend: CC-PVTZ-JKFIT
  Basis Set: 6-311G
    Blend: 6-311G
  Basis Set: (6-311G AUX)
    Blend: CC-PVTZ-JKFIT
  @DF-RKS Final Energy:  -840.65309435561323
    Total Energy =                       -840.6530943556133479
  Basis Set: 6-311G
    Blend: 6-311G
  Basis Set: (6-311G AUX)
    Blend: CC-PVTZ-JKFIT
  Basis Set: 6-311G
    Blend: 6-311G
  @DF-RKS Final Energy:  -840.65330601105211
    Total Energy =                       -840.6533060110521092
  @DF-RKS Final Energy:  -840.65343014674875
    Total Energy =                       -840.6534301467486330
  @DF-RKS Final Energy:  -840.65353421490886
    Total Energy =                       -840.6535342149087455
  Basis Set: (6-311G AUX)
    Blend: CC-PVTZ-JKFIT
  Basis Set: 6-311G
    Blend: 6-311G
  Basis Set: (6-311G AUX)
    Blend: CC-PVTZ-JKFIT
  @DF-RKS Final Energy:  -840.65354554829150
    Total Energy =                       -840.6535455482915040
  Basis Set: 6-311G
    Blend: 6-311G
  Basis Set: (6-311G AUX)
    Blend: CC-PVTZ-JKFIT
  Charge       = 0
  Multiplicity = 1
  Basis Set: 6-311G
    Blend: 6-311G
  Basis Set: (6-311G AUX)
    Blend: CC-PVTZ-JKFIT

    Orbital Energies [Eh]
    ---------------------

    Doubly Occupied:

       1A    -19.208812     2A    -14.474758     3A    -14.468820
       4A    -10.389240     5A    -10.371423     6A    -10.347525
       7A    -10.322653     8A    -10.320960     9A    -10.308926
      10A    -10.308083    11A    -10.307699    12A    -10.307040
      13A    -10.306369    14A    -10.294602    15A    -10.294555
      16A    -10.292965    17A    -10.291867    18A    -10.291729
      19A    -10.288321    20A    -10.282876    21A     -1.139905
      22A     -1.075831    23A     -1.059023    24A     -0.987007
      25A     -0.966399    26A     -0.915543    27A     -0.878567
      28A     -0.869052    29A     -0.858412    30A     -0.856655
      31A     -0.818734    32A     -0.774713    33A     -0.730760
      34A     -0.727727    35A     -0.715642    36A     -0.699074
      37A     -0.683512    38A     -0.666670    39A     -0.641857
      40A     -0.619188    41A     -0.601607    42A     -0.586788
      43A     -0.583710    44A     -0.567341    45A     -0.556270
      46A     -0.538895    47A     -0.534964    48A     -0.531768
      49A     -0.526200    50A     -0.518612    51A     -0.516388
      52A     -0.513004    53A     -0.498898    54A     -0.494588
      55A     -0.480803    56A     -0.476136    57A     -0.450757
      58A     -0.449925    59A     -0.445478    60A     -0.436431
      61A     -0.431352    62A     -0.406309    63A     -0.368665
      64A     -0.349819    65A     -0.341785    66A     -0.335215
      67A     -0.332661    68A     -0.305832    69A     -0.256112

  @DF-RKS Final Energy:  -840.65355161492278

   => Energetics <=

    Nuclear Repulsion Energy =           1421.3432294931262732
    One-Electron Energy =               -3960.6069877982040452
    Two-Electron Energy =                1781.3107499734032899
    DFT Exchange-Correlation Energy =     -82.6763317404817144
    Empirical Dispersion Energy =          -0.0242115427665311
    VV10 Nonlocal Energy =                  0.0000000000000000
    Total Energy =                       -840.6535516149227760

  Dipole Moment: [D]
     X:    -1.6066      Y:     2.4112      Z:    -1.6286     Total:     3.3237

    Molecular point group: c1
  Basis Set: 6-311G
    Blend: 6-311G
  Basis Set: (6-311G AUX)
    Blend: CC-PVTZ-JKFIT

  -Total Gradient:
     Atom            X                  Y                   Z
    ------   -----------------  -----------------  -----------------
       1        0.002326061993     0.004888855844     0.006176894002
       2       -0.001406622665    -0.002355250118    -0.002895195632
       3       -0.001322121264    -0.002198044993    -0.004416372366
       4        0.000929589555     0.001649921340     0.002968945370
       5        0.000048848223    -0.000194994743     0.000107554681
       6       -0.000202417041    -0.000090854868     0.000117676540
       7       -0.000979360084    -0.001567540535    -0.001680705795
       8       -0.000140618434    -0.000062847646    -0.000272672566
       9       -0.000089533075     0.000022305267    -0.000102550394
      10        0.000604342663    -0.000151721529     0.000280160175
      11        0.000092983579     0.000115813407     0.000241788999
      12        0.002267345522     0.000370114757    -0.000374301517
      13       -0.001740719151    -0.000624740223    -0.000176815536
      14        0.000054058972     0.000000889284     0.000079922018
      15        0.000031274048    -0.000083660369    -0.000028015784
      16       -0.000038195386     0.000006658850     0.000086973198
      17        0.000035288229    -0.000029211872     0.000029335540
      18       -0.000046142827     0.000070616549     0.000022019939
      19        0.000017947834    -0.000069200325     0.000008666847
      20       -0.000053613364    -0.000005904917     0.000005969988
      21       -0.000003525256    -0.000030304760     0.000029603808
      22        0.000049435322     0.000031270740    -0.000022542240
      23       -0.000025240936    -0.000022107503    -0.000053070384
      24       -0.000297761193     0.000171635116    -0.000027603313
      25       -0.000040832585    -0.000022073745     0.000037135962
      26       -0.000022250458    -0.000015089400     0.000005766505
      27       -0.000028372929     0.000011767560     0.000002590237
      28        0.000002668977     0.000003048274    -0.000042456332
      29       -0.000020698333     0.000000889473    -0.000017241414
      30        0.000028217021     0.000003533461     0.000005095984
      31        0.000003186741     0.000023903592    -0.000011775421
      32       -0.000005059309    -0.000034196637    -0.000035203688
      33       -0.000032614733    -0.000010568042     0.000025818866
      34        0.000031527013     0.000005411928    -0.000011569375

  **** Optimization is complete! (in 7 steps) ****
    Final optimized geometry and variables:
    Molecular point group: c1

    Geometry (in Angstrom), charge = 0, multiplicity = 1:

    C           -0.546649571677    -0.160205586114     0.348468760883
    N            0.617439918500    -0.870886526670     0.312231268186
    C            1.878655864991    -0.586084664664    -0.256389584628
    C            2.862202344720    -1.572321332339    -0.083170613714
    H            0.615198560459    -1.653865088925     0.972992888926
    C            2.233122069136     0.618587207912    -0.875936719373
    C           -1.528387884616    -0.546915968638     1.235245832124
    N           -2.526341376748    -1.710176145977     2.898193418286
    C           -2.890232487352    -0.059657743675     1.409818020615
    C           -1.340127786589    -1.624700943610     2.203834295994
    C           -3.453149199175    -0.769729817293     2.412824776963
    C           -0.826826807148     0.895883889550    -0.657012633169
    C           -1.245423433573     2.166843087633    -0.256469199036
    C           -0.746496716231     0.594551789051    -2.021696699147
    C           -1.553681706839     3.135664450084    -1.209303188076
    C           -1.062617145288     1.560391311543    -2.969887596792
    C           -1.462013190331     2.834726928435    -2.566002689516
    C            4.150425408386    -1.382354044250    -0.564491834583
    C            3.528079644718     0.795829755634    -1.358495049936
    C            4.491641374656    -0.198046594203    -1.215981194630
    H            2.603790076634    -2.491541045109     0.426992261703
    H            1.524868012820     1.423104453308    -0.974243156707
    H           -2.685282694352    -2.378593293486     3.626617375674
    O           -0.328609476649    -2.362656366065     2.380157468198
    H           -1.312273102070     2.395001737775     0.798545163082
    H           -0.430046314572    -0.392523748270    -2.330270995819
    H           -1.865098571282     4.121243572884    -0.891526126491
    H           -0.999120210125     1.320723286551    -4.022360917566
    H           -1.703507560059     3.585952452442    -3.305443828898
    H            4.889451312376    -2.159450382595    -0.424714422370
    H            3.781978115331     1.731184915637    -1.838908919424
    H           -3.365858611486     0.715315014223     0.836114429241
    H           -4.440026200643    -0.706911657615     2.834359810797
    H            5.493752958106    -0.048615148905    -1.592593790723

*** Psi4 exiting successfully. Buy a developer a beer!
