                               Psi4 1.5 release

  ==> Input File <==

--------------------------------------------------------------------------
molecule {
0 1
 C   -0.571687   -0.293925    0.392194
 N    0.629558   -0.914688    0.558318
 C    1.856409   -0.534854   -0.060439
 C    2.529393   -1.445293   -0.875593
 H    0.652428   -1.597409    1.320586
 C    2.367174    0.751215    0.116326
 C   -1.599113   -0.570068    1.268802
 N   -2.648812   -1.492131    3.045916
 C   -2.987276   -0.128987    1.285559
 C   -1.428585   -1.469408    2.404822
 C   -3.582191   -0.693120    2.361090
 C   -0.736033    0.655659   -0.738238
 C   -1.270170    1.929320   -0.518352
 C   -0.370975    0.281948   -2.036726
 C   -1.420921    2.820618   -1.577606
 C   -0.528788    1.170984   -3.093684
 C   -1.049700    2.444081   -2.866325
 C    3.718887   -1.074468   -1.497358
 C    3.546618    1.124193   -0.520968
 C    4.226552    0.212453   -1.326804
 H    2.113921   -2.433971   -1.015663
 H    1.833735    1.449127    0.746385
 H   -2.823310   -2.039062    3.866518
 O   -0.402600   -2.123552    2.752170
 H   -1.546338    2.223156    0.485116
 H    0.034781   -0.703747   -2.214571
 H   -1.822186    3.808171   -1.395229
 H   -0.243142    0.871589   -4.092588
 H   -1.164526    3.137574   -3.688161
 H    4.241003   -1.784726   -2.123841
 H    3.935316    2.123927   -0.384610
 H   -3.459426    0.515798    0.565771
 H   -4.594841   -0.610837    2.712438
 H    5.144785    0.502404   -1.818542
}
memory 8.166666666666666GB
set_num_threads(2)
psi4_io.set_default_path("/scratch/bdw2292/Psi4-1_16_Index_0-farH_in17")
set freeze_core True
E, wfn = energy('wb97x-d/6-311+G*',return_wfn=True)
oeprop(wfn,"WIBERG_LOWDIN_INDICES")
clean()
--------------------------------------------------------------------------

    Molecular point group: c1

    Geometry (in Angstrom), charge = 0, multiplicity = 1:

       Center              X                  Y                   Z               Mass
    ------------   -----------------  -----------------  -----------------  -----------------
         C           -0.571687102886    -0.293925048745     0.392193890834    12.000000000000
         N            0.629557897114    -0.914688048745     0.558317890834    14.003074004430
         C            1.856408897114    -0.534854048745    -0.060439109166    12.000000000000
         C            2.529392897114    -1.445293048745    -0.875593109166    12.000000000000
         H            0.652427897114    -1.597409048745     1.320585890834     1.007825032230
         C            2.367173897114     0.751214951255     0.116325890834    12.000000000000
         C           -1.599113102886    -0.570068048745     1.268801890834    12.000000000000
         N           -2.648812102886    -1.492131048745     3.045915890834    14.003074004430
         C           -2.987276102886    -0.128987048745     1.285558890834    12.000000000000
         C           -1.428585102886    -1.469408048745     2.404821890834    12.000000000000
         C           -3.582191102886    -0.693120048745     2.361089890834    12.000000000000
         C           -0.736033102886     0.655658951255    -0.738238109166    12.000000000000
         C           -1.270170102886     1.929319951255    -0.518352109166    12.000000000000
         C           -0.370975102886     0.281947951255    -2.036726109166    12.000000000000
         C           -1.420921102886     2.820617951255    -1.577606109166    12.000000000000
         C           -0.528788102886     1.170983951255    -3.093684109166    12.000000000000
         C           -1.049700102886     2.444080951255    -2.866325109166    12.000000000000
         C            3.718886897114    -1.074468048745    -1.497358109166    12.000000000000
         C            3.546617897114     1.124192951255    -0.520968109166    12.000000000000
         C            4.226551897114     0.212452951255    -1.326804109166    12.000000000000
         H            2.113920897114    -2.433971048745    -1.015663109166     1.007825032230
         H            1.833734897114     1.449126951255     0.746384890834     1.007825032230
         H           -2.823310102886    -2.039062048745     3.866517890834     1.007825032230
         O           -0.402600102886    -2.123552048745     2.752169890834    15.994914619570
         H           -1.546338102886     2.223155951255     0.485115890834     1.007825032230
         H            0.034780897114    -0.703747048745    -2.214571109166     1.007825032230
         H           -1.822186102886     3.808170951255    -1.395229109166     1.007825032230
         H           -0.243142102886     0.871588951255    -4.092588109166     1.007825032230
         H           -1.164526102886     3.137573951255    -3.688161109166     1.007825032230
         H            4.241002897114    -1.784726048745    -2.123841109166     1.007825032230
         H            3.935315897114     2.123926951255    -0.384610109166     1.007825032230
         H           -3.459426102886     0.515797951255     0.565770890834     1.007825032230
         H           -4.594841102886    -0.610837048745     2.712437890834     1.007825032230
         H            5.144784897114     0.502403951255    -1.818542109166     1.007825032230

  Charge       = 0
  Multiplicity = 1
  Basis Set: 6-311+G*
    Blend: 6-311+G*
  Basis Set: (6-311+G* AUX)
    Blend: HEAVY-AUG-CC-PVTZ-JKFIT

    Orbital Energies [Eh]
    ---------------------

    Doubly Occupied:

       1A    -19.202792     2A    -14.464178     3A    -14.462950
       4A    -10.375500     5A    -10.362864     6A    -10.337943
       7A    -10.314810     8A    -10.314566     9A    -10.302949
      10A    -10.302619    11A    -10.301955    12A    -10.300945
      13A    -10.300264    14A    -10.299216    15A    -10.298431
      16A    -10.297624    17A    -10.296982    18A    -10.296658
      19A    -10.280099    20A    -10.277477    21A     -1.120344
      22A     -1.066220    23A     -1.045647    24A     -0.977657
      25A     -0.964516    26A     -0.906586    27A     -0.869905
      28A     -0.861554    29A     -0.859453    30A     -0.853693
      31A     -0.812288    32A     -0.765593    33A     -0.723817
      34A     -0.718906    35A     -0.716655    36A     -0.693891
      37A     -0.678579    38A     -0.665951    39A     -0.636344
      40A     -0.617554    41A     -0.596954    42A     -0.582117
      43A     -0.579290    44A     -0.563674    45A     -0.554570
      46A     -0.545056    47A     -0.536151    48A     -0.524031
      49A     -0.520034    50A     -0.518184    51A     -0.511821
      52A     -0.508163    53A     -0.495390    54A     -0.478709
      55A     -0.474457    56A     -0.469070    57A     -0.452767
      58A     -0.450559    59A     -0.443607    60A     -0.440612
      61A     -0.425436    62A     -0.402691    63A     -0.358628
      64A     -0.345021    65A     -0.341214    66A     -0.337518
      67A     -0.331637    68A     -0.316524    69A     -0.259543

  @DF-RKS Final Energy:  -840.87096696040010

   => Energetics <=

    Nuclear Repulsion Energy =           1431.7956504741366643
    One-Electron Energy =               -3982.5203223387879916
    Two-Electron Energy =                1792.5614775682715845
    DFT Exchange-Correlation Energy =     -82.6831018369918809
    Empirical Dispersion Energy =          -0.0246708270287285
    VV10 Nonlocal Energy =                  0.0000000000000000
    Total Energy =                       -840.8709669604000965

  Dipole Moment: [D]
     X:    -0.5621      Y:     2.3895      Z:    -2.5584     Total:     3.5455

*** Psi4 exiting successfully. Buy a developer a beer!
