                               Psi4 1.5 release

  ==> Input File <==

--------------------------------------------------------------------------
molecule {
0 1
 C   -0.608157   -0.202617    0.337664
 N    0.467291   -1.058992    0.242167
 C    1.659750   -1.003754   -0.525503
 C    2.263654   -2.227325   -0.918314
 H    0.462523   -1.769240    0.989202
 C    2.311395    0.213249   -0.849468
 C   -1.475680   -0.378452    1.405217
 N   -2.354933   -0.062945    3.462098
 C   -2.598152   -1.267416    1.568685
 C   -1.343316    0.397445    2.651160
 C   -3.103617   -1.049907    2.813279
 C   -0.784698    0.951634   -0.575610
 C   -1.288947    0.756653   -1.883773
 C   -0.472175    2.263053   -0.141089
 C   -1.456957    1.850039   -2.744540
 C   -0.642962    3.352773   -1.004372
 C   -1.132727    3.153165   -2.311980
 C    3.462555   -2.225767   -1.644690
 C    3.510637    0.203756   -1.575887
 C    4.094289   -1.012591   -1.982546
 H    1.791626   -3.178768   -0.662093
 H    1.896608    1.169333   -0.533895
 H   -2.497907    0.299141    4.393582
 O   -0.511756    1.281034    2.957268
 H   -1.542631   -0.251227   -2.217261
 H   -0.096868    2.412912    0.873239
 H   -1.839248    1.689630   -3.754220
 H   -0.392668    4.357739   -0.660666
 H   -1.261435    4.002963   -2.984853
 H    3.904823   -3.176546   -1.947099
 H    3.992761    1.151401   -1.821995
 H   -2.970253   -1.980828    0.847145
 H   -3.936847   -1.519692    3.317261
 H    5.027179   -1.014508   -2.549217
}
set optking {
  frozen_dihedral = ("
    2 1 12 13
    7 1 2 3
    1 2 3 4
  ")
}
set {
  geom_maxiter 400
  g_convergence GAU_LOOSE
  dynamic_level 1
}
memory 8.166666666666666GB
set_num_threads(2)
psi4_io.set_default_path("/scratch/bdw2292/Psi4-1_16_Index_0-farH_in17")
for _ in range(1):
  try:
    set opt_coordinates both
    optimize('wb97x-d/6-311G')
    break
  except OptimizationConvergenceError:
    break
  else:
    try:
      set opt_coordinates cartesian
      optimize('wb97x-d/6-311G')
      break
    except OptimizationConvergenceError:
      pass
clean()
--------------------------------------------------------------------------

    Molecular point group: c1
  Charge       = 0
  Multiplicity = 1
  Basis Set: 6-311G
    Blend: 6-311G
  Basis Set: (6-311G AUX)
    Blend: CC-PVTZ-JKFIT
  @DF-RKS Final Energy:  -840.56901492576253
    Total Energy =                       -840.5690149257625308
    Molecular point group: c1
  Basis Set: 6-311G
    Blend: 6-311G
  Basis Set: (6-311G AUX)
    Blend: CC-PVTZ-JKFIT
  Basis Set: 6-311G
    Blend: 6-311G
  Basis Set: (6-311G AUX)
    Blend: CC-PVTZ-JKFIT
  @DF-RKS Final Energy:  -840.58747964924316
    Total Energy =                       -840.5874796492431642
  Basis Set: 6-311G
    Blend: 6-311G
  Basis Set: (6-311G AUX)
    Blend: CC-PVTZ-JKFIT
  Basis Set: 6-311G
    Blend: 6-311G
  @DF-RKS Final Energy:  -840.18932738926458
    Total Energy =                       -840.1893273892644629
  @DF-RKS Final Energy:  -840.46470831726538
    Total Energy =                       -840.4647083172652628
  @DF-RKS Final Energy:  -840.59252280241458
    Total Energy =                       -840.5925228024146918
  @DF-RKS Final Energy:  -840.61025567093168
    Total Energy =                       -840.6102556709316787
  @DF-RKS Final Energy:  -840.59268189180023
    Total Energy =                       -840.5926818918002255
  @DF-RKS Final Energy:  -840.61025570328479
    Total Energy =                       -840.6102557032847926
  @DF-RKS Final Energy:  -840.61698000028673
    Total Energy =                       -840.6169800002868442
  @DF-RKS Final Energy:  -840.62059725750828
    Total Energy =                       -840.6205972575081660
  @DF-RKS Final Energy:  -840.62341773376909
    Total Energy =                       -840.6234177337690880
  @DF-RKS Final Energy:  -840.62584891942197
    Total Energy =                       -840.6258489194219692
  @DF-RKS Final Energy:  -840.62798883271239
    Total Energy =                       -840.6279888327125036
  @DF-RKS Final Energy:  -840.62987646427962
    Total Energy =                       -840.6298764642796186
  @DF-RKS Final Energy:  -840.63153758141118
    Total Energy =                       -840.6315375814110666
  @DF-RKS Final Energy:  -840.63295720762096
    Total Energy =                       -840.6329572076209615
  @DF-RKS Final Energy:  -840.63411423138496
    Total Energy =                       -840.6341142313849559
  @DF-RKS Final Energy:  -840.63497944913684
    Total Energy =                       -840.6349794491368357
  @DF-RKS Final Energy:  -840.63551929216396
    Total Energy =                       -840.6355192921639627
  @DF-RKS Final Energy:  -840.63571694371785
    Total Energy =                       -840.6357169437177390
  @DF-RKS Final Energy:  -840.63560417526526
    Total Energy =                       -840.6356041752651436
  Basis Set: (6-311G AUX)
    Blend: CC-PVTZ-JKFIT
  Basis Set: 6-311G
    Blend: 6-311G
  Basis Set: (6-311G AUX)
    Blend: CC-PVTZ-JKFIT
  @DF-RKS Final Energy:  -840.63573486131099
    Total Energy =                       -840.6357348613108798
  Basis Set: 6-311G
    Blend: 6-311G
  Basis Set: (6-311G AUX)
    Blend: CC-PVTZ-JKFIT
  Charge       = 0
  Multiplicity = 1
  Basis Set: 6-311G
    Blend: 6-311G
  Basis Set: (6-311G AUX)
    Blend: CC-PVTZ-JKFIT

    Orbital Energies [Eh]
    ---------------------

    Doubly Occupied:

       1A    -19.196422     2A    -14.483047     3A    -14.461618
       4A    -10.385999     5A    -10.366098     6A    -10.351284
       7A    -10.326869     8A    -10.306468     9A    -10.301241
      10A    -10.300664    11A    -10.299013    12A    -10.296391
      13A    -10.294308    14A    -10.292643    15A    -10.292036
      16A    -10.291705    17A    -10.290098    18A    -10.289345
      19A    -10.289062    20A    -10.284552    21A     -1.133298
      22A     -1.080151    23A     -1.053531    24A     -0.976410
      25A     -0.965048    26A     -0.912395    27A     -0.872078
      28A     -0.862258    29A     -0.854911    30A     -0.852155
      31A     -0.819768    32A     -0.771222    33A     -0.730269
      34A     -0.719514    35A     -0.707851    36A     -0.697107
      37A     -0.683806    38A     -0.665219    39A     -0.643536
      40A     -0.618500    41A     -0.600430    42A     -0.592041
      43A     -0.566678    44A     -0.558304    45A     -0.549742
      46A     -0.546296    47A     -0.532582    48A     -0.524721
      49A     -0.522230    50A     -0.520211    51A     -0.517910
      52A     -0.512630    53A     -0.491564    54A     -0.488662
      55A     -0.476398    56A     -0.458167    57A     -0.452159
      58A     -0.448403    59A     -0.435028    60A     -0.430423
      61A     -0.425395    62A     -0.402721    63A     -0.362183
      64A     -0.343096    65A     -0.334452    66A     -0.328722
      67A     -0.316893    68A     -0.308000    69A     -0.256130

  @DF-RKS Final Energy:  -840.63575123011606

   => Energetics <=

    Nuclear Repulsion Energy =           1424.6642324062431726
    One-Electron Energy =               -3967.7770064292953975
    Two-Electron Energy =                1785.1697042826467623
    DFT Exchange-Correlation Energy =     -82.6683137776695105
    Empirical Dispersion Energy =          -0.0243677120410633
    VV10 Nonlocal Energy =                  0.0000000000000000
    Total Energy =                       -840.6357512301160568

  Dipole Moment: [D]
     X:     0.6621      Y:    -3.3203      Z:    -0.9513     Total:     3.5168

    Molecular point group: c1
  Basis Set: 6-311G
    Blend: 6-311G
  Basis Set: (6-311G AUX)
    Blend: CC-PVTZ-JKFIT

  -Total Gradient:
     Atom            X                  Y                   Z
    ------   -----------------  -----------------  -----------------
       1       -0.005648075434     0.001611721222    -0.003296760806
       2        0.001451877291     0.000196625260     0.000809758303
       3        0.000625396729     0.000430119816     0.000599409255
       4        0.000266527474    -0.000778889666     0.000680072907
       5        0.000101893226     0.000112806326    -0.000033239161
       6       -0.000232427206     0.000162939365     0.000206559996
       7        0.000385947607    -0.000299712883     0.000740314041
       8       -0.000053380063     0.000000386650     0.000024379459
       9        0.000341335972    -0.000066766946     0.000235937860
      10        0.000167281446     0.000000475260    -0.000237817722
      11       -0.000114032729     0.000071763069    -0.000166816293
      12        0.006445459729    -0.003055986267    -0.001524988397
      13       -0.003439096799     0.001836061392     0.002142964736
      14       -0.000084076830    -0.000220455008    -0.000167700276
      15        0.000002621981     0.000001395666    -0.000007506482
      16       -0.000052340944    -0.000063951652    -0.000047488327
      17       -0.000009519916     0.000025789574    -0.000032064825
      18        0.000074549689     0.000024067422     0.000005570077
      19       -0.000015369188    -0.000038976547     0.000003983471
      20       -0.000021748656     0.000007353724    -0.000000502777
      21        0.000027064173     0.000020296865     0.000006010242
      22        0.000066628471    -0.000089167713    -0.000074978872
      23        0.000022283018    -0.000072960444    -0.000039535257
      24       -0.000166741995    -0.000264238832     0.000133096222
      25       -0.000002426232    -0.000002799767     0.000012964855
      26       -0.000031331844     0.000000147175     0.000005903342
      27        0.000001187372    -0.000001598588     0.000010639714
      28       -0.000032140486    -0.000009734789     0.000001530294
      29       -0.000016878657     0.000003464263     0.000013141613
      30        0.000035272559     0.000026799181     0.000008273153
      31       -0.000019071049     0.000009359627     0.000014752038
      32       -0.000102137935     0.000227432973     0.000036020199
      33        0.000034883450     0.000063402450    -0.000039348922
      34        0.000018417063     0.000008453104     0.000024399962

  **** Optimization is complete! (in 15 steps) ****
    Final optimized geometry and variables:
    Molecular point group: c1

    Geometry (in Angstrom), charge = 0, multiplicity = 1:

    C           -0.601660498256    -0.346930671928     0.282932533628
    N           -0.068360650674    -1.409484991237    -0.413010657093
    C            1.163660393197    -1.528882885434    -1.099732047644
    C            1.206898620102    -2.398992075917    -2.196694421458
    H           -0.643667115721    -2.234227695812    -0.445576488181
    C            2.334923319195    -0.882136535254    -0.695567708845
    C           -1.665360566256    -0.545265132647     1.115745676645
    N           -3.465824558046    -0.147042723671     2.443240600089
    C           -2.296417114222    -1.811999439883     1.488479054594
    C           -2.453935336686     0.527787646985     1.761314106113
    C           -3.354720329471    -1.530310066036     2.277384760778
    C           -0.001505809485     1.001500452017     0.083255570573
    C           -0.331584259345     1.734419971130    -1.056232968123
    C            0.789603266285     1.583672697333     1.073847842191
    C            0.165593805980     3.023044329744    -1.226357178242
    C            1.292561232765     2.867660869472     0.900174344223
    C            0.983638039234     3.588629515281    -0.252149421476
    C            2.395698581506    -2.608841008272    -2.885327134915
    C            3.516741442740    -1.083689399605    -1.403602908179
    C            3.557978757110    -1.945260327332    -2.496910765845
    H            0.299498261061    -2.895485869586    -2.517413035822
    H            2.331934275729    -0.232632029885     0.163275989502
    H           -4.162739736866     0.334438481781     2.976882436587
    O           -2.332417672646     1.765916274529     1.742579884483
    H           -0.978878918243     1.295741142857    -1.803473777891
    H            0.993424615088     1.033649284859     1.983166407390
    H           -0.095633445945     3.587139399407    -2.111123374324
    H            1.908113822405     3.312961616588     1.669694682333
    H            1.366401427568     4.591802472750    -0.381822930001
    H            2.409819203781    -3.283078176403    -3.730717472333
    H            4.413995596490    -0.571775419058    -1.083797048755
    H           -1.959800907163    -2.803618283123     1.238669159780
    H           -4.043156227239    -2.199242212114     2.762753452209
    H            4.482139616913    -2.101130466000    -3.035342972124

*** Psi4 exiting successfully. Buy a developer a beer!
