                               Psi4 1.5 release

  ==> Input File <==

--------------------------------------------------------------------------
molecule {
0 1
 C   -0.520946   -0.193316    0.319837
 N    0.738847   -0.751027    0.534283
 C    2.018970   -0.514216   -0.032264
 C    2.338166   -0.695029   -1.399321
 H    0.775005   -1.305897    1.411002
 C    3.020710   -0.001914    0.836640
 C   -1.521601   -0.442288    1.272698
 N   -2.478524   -1.091193    3.235535
 C   -2.947065   -0.205104    1.216447
 C   -1.264420   -1.054986    2.595657
 C   -3.483292   -0.590098    2.406518
 C   -0.820583    0.636343   -0.882836
 C   -1.429883    1.910087   -0.724871
 C   -0.731247    0.096491   -2.191925
 C   -1.823438    2.660507   -1.840056
 C   -1.118935    0.851837   -3.306739
 C   -1.656670    2.143001   -3.139483
 C    3.613265   -0.366002   -1.881918
 C    4.292531    0.322531    0.346767
 C    4.599444    0.146866   -1.016447
 H    1.612753   -1.113681   -2.090832
 H    2.798511    0.144312    1.896739
 H   -2.582995   -1.450918    4.173024
 O   -0.175534   -1.472907    3.064823
 H   -1.576851    2.312137    0.279659
 H   -0.383646   -0.926470   -2.332360
 H   -2.261640    3.649962   -1.698893
 H   -1.012614    0.432609   -4.308911
 H   -1.953573    2.732699   -4.008627
 H    3.839113   -0.514623   -2.939413
 H    5.045413    0.714903    1.032528
 H   -3.499039    0.214355    0.386760
 H   -4.507010   -0.555645    2.752147
 H    5.589938    0.402014   -1.397279
}
set optking {
  frozen_dihedral = ("
    1 2 3 4
    2 1 12 13
    7 1 2 3
  ")
}
set {
  geom_maxiter 400
  g_convergence GAU_LOOSE
  dynamic_level 1
}
memory 8.166666666666666GB
set_num_threads(2)
psi4_io.set_default_path("/scratch/bdw2292/Psi4-1_16_Index_0-farH_in17")
for _ in range(1):
  try:
    set opt_coordinates both
    optimize('wb97x-d/6-311G')
    break
  except OptimizationConvergenceError:
    break
  else:
    try:
      set opt_coordinates cartesian
      optimize('wb97x-d/6-311G')
      break
    except OptimizationConvergenceError:
      pass
clean()
--------------------------------------------------------------------------

    Molecular point group: c1
  Charge       = 0
  Multiplicity = 1
  Basis Set: 6-311G
    Blend: 6-311G
  Basis Set: (6-311G AUX)
    Blend: CC-PVTZ-JKFIT
  @DF-RKS Final Energy:  -840.63832119915639
    Total Energy =                       -840.6383211991565076
    Molecular point group: c1
  Basis Set: 6-311G
    Blend: 6-311G
  Basis Set: (6-311G AUX)
    Blend: CC-PVTZ-JKFIT
  Basis Set: 6-311G
    Blend: 6-311G
  Basis Set: (6-311G AUX)
    Blend: CC-PVTZ-JKFIT
  @DF-RKS Final Energy:  -840.64590033081799
    Total Energy =                       -840.6459003308181082
  Basis Set: 6-311G
    Blend: 6-311G
  Basis Set: (6-311G AUX)
    Blend: CC-PVTZ-JKFIT
  Basis Set: 6-311G
    Blend: 6-311G
  @DF-RKS Final Energy:  -840.64667079360129
    Total Energy =                       -840.6466707936014018
  @DF-RKS Final Energy:  -840.64679042597709
    Total Energy =                       -840.6467904259772013
  @DF-RKS Final Energy:  -840.64685973365113
    Total Energy =                       -840.6468597336511266
  Basis Set: (6-311G AUX)
    Blend: CC-PVTZ-JKFIT
  Basis Set: 6-311G
    Blend: 6-311G
  Basis Set: (6-311G AUX)
    Blend: CC-PVTZ-JKFIT
  @DF-RKS Final Energy:  -840.64688128515206
    Total Energy =                       -840.6468812851520624
  Basis Set: 6-311G
    Blend: 6-311G
  Basis Set: (6-311G AUX)
    Blend: CC-PVTZ-JKFIT
  Charge       = 0
  Multiplicity = 1
  Basis Set: 6-311G
    Blend: 6-311G
  Basis Set: (6-311G AUX)
    Blend: CC-PVTZ-JKFIT

    Orbital Energies [Eh]
    ---------------------

    Doubly Occupied:

       1A    -19.204506     2A    -14.469147     3A    -14.465591
       4A    -10.384767     5A    -10.370670     6A    -10.344881
       7A    -10.322377     8A    -10.316695     9A    -10.309425
      10A    -10.306864    11A    -10.306293    12A    -10.305651
      13A    -10.304808    14A    -10.298260    15A    -10.297608
      16A    -10.297518    17A    -10.295993    18A    -10.295062
      19A    -10.286509    20A    -10.279561    21A     -1.135128
      22A     -1.070259    23A     -1.054901    24A     -0.985876
      25A     -0.968864    26A     -0.912904    27A     -0.875660
      28A     -0.868075    29A     -0.860268    30A     -0.858194
      31A     -0.816717    32A     -0.771473    33A     -0.728645
      34A     -0.727976    35A     -0.714149    36A     -0.697357
      37A     -0.681493    38A     -0.668660    39A     -0.643435
      40A     -0.619044    41A     -0.599903    42A     -0.585133
      43A     -0.582213    44A     -0.565194    45A     -0.555883
      46A     -0.552607    47A     -0.540090    48A     -0.529112
      49A     -0.522015    50A     -0.519004    51A     -0.517808
      52A     -0.510305    53A     -0.494970    54A     -0.483902
      55A     -0.473899    56A     -0.471171    57A     -0.452607
      58A     -0.452044    59A     -0.445520    60A     -0.438889
      61A     -0.427203    62A     -0.402303    63A     -0.358195
      64A     -0.347414    65A     -0.344570    66A     -0.335489
      67A     -0.329743    68A     -0.313909    69A     -0.256343

  @DF-RKS Final Energy:  -840.64689754057395

   => Energetics <=

    Nuclear Repulsion Energy =           1417.6682613671164290
    One-Electron Energy =               -3953.3903399218397681
    Two-Electron Energy =                1777.7697154871150360
    DFT Exchange-Correlation Energy =     -82.6706785497655119
    Empirical Dispersion Energy =          -0.0238559232000487
    VV10 Nonlocal Energy =                  0.0000000000000000
    Total Energy =                       -840.6468975405738320

  Dipole Moment: [D]
     X:    -1.2959      Y:     2.0119      Z:    -2.4099     Total:     3.3962

    Molecular point group: c1
  Basis Set: 6-311G
    Blend: 6-311G
  Basis Set: (6-311G AUX)
    Blend: CC-PVTZ-JKFIT

  -Total Gradient:
     Atom            X                  Y                   Z
    ------   -----------------  -----------------  -----------------
       1        0.001945953249     0.010428286557     0.005509596237
       2       -0.001479343002    -0.002617676903     0.001705119955
       3       -0.000853490271    -0.003243109917    -0.003609086565
       4       -0.000205943210     0.000383391357     0.000170733649
       5        0.000054704950     0.000109311131    -0.000043521904
       6        0.000030781763    -0.000077906232    -0.000034511278
       7       -0.001117517575    -0.002822451034    -0.002094774405
       8       -0.000198872061     0.000174651847    -0.000028248541
       9       -0.000021291400    -0.000067789247    -0.000122852835
      10        0.000308133009    -0.000384627834    -0.000104325725
      11       -0.000004436296    -0.000024085850     0.000204532189
      12        0.008458731604     0.001180912577    -0.001678653728
      13       -0.006587928979    -0.002790128470    -0.000098532655
      14       -0.000205934897     0.000002916273    -0.000006384308
      15        0.000021015788    -0.000035200511     0.000069187491
      16        0.000022442583     0.000085062258     0.000036589821
      17        0.000025220626    -0.000056195834    -0.000035097505
      18       -0.000062426212    -0.000043481526    -0.000018787103
      19        0.000009544578    -0.000021906039     0.000031217308
      20        0.000033876742    -0.000027122537     0.000036467663
      21       -0.000170065511    -0.000114308963    -0.000146845546
      22        0.000033382066    -0.000044743954     0.000046404476
      23       -0.000035662789    -0.000020302802     0.000080249707
      24       -0.000043456503    -0.000125056316     0.000172699681
      25       -0.000019321300    -0.000010367748     0.000080550331
      26        0.000181190372    -0.000036839277    -0.000010128482
      27        0.000005444949     0.000027616427    -0.000009559241
      28       -0.000022576704    -0.000009604181    -0.000094121341
      29       -0.000021717152     0.000024552297    -0.000051641675
      30       -0.000015923618    -0.000007470253    -0.000066128727
      31        0.000101136839     0.000043496103     0.000083216208
      32       -0.000039675248     0.000041183878    -0.000083346359
      33       -0.000045063090     0.000007978531     0.000029165935
      34        0.000034446297     0.000016312916    -0.000002876276

  **** Optimization is complete! (in 7 steps) ****
    Final optimized geometry and variables:
    Molecular point group: c1

    Geometry (in Angstrom), charge = 0, multiplicity = 1:

    C           -0.499154300382    -0.161549448446     0.345813907706
    N            0.715242628211    -0.755421158355     0.522085142643
    C            1.976377394559    -0.477978233882    -0.082854808585
    C            2.241023548727    -0.576155998398    -1.448561791883
    H            0.763072214736    -1.295457388587     1.393009758143
    C            3.019378085404    -0.142217499063     0.791247082224
    C           -1.489790413875    -0.415857194258     1.274611941999
    N           -2.444610457839    -1.179277833607     3.175888356167
    C           -2.894851361218    -0.032570479641     1.291685946825
    C           -1.244097128435    -1.166651002127     2.500892971677
    C           -3.433779325705    -0.502425649214     2.439351152548
    C           -0.831184830512     0.617708431115    -0.877522966827
    C           -1.365521963382     1.904761307821    -0.750669798149
    C           -0.843748635531     0.005169778720    -2.135619587298
    C           -1.809504593721     2.600698491411    -1.871498601883
    C           -1.296698577408     0.696136685296    -3.254999077885
    C           -1.767491235749     2.001433516125    -3.128195303768
    C            3.520251387212    -0.305064152424    -1.931805433652
    C            4.296876814402     0.109944843175     0.306351641255
    C            4.551089018833     0.039210110484    -1.062720251416
    H            1.471680535822    -0.878374677948    -2.136126061495
    H            2.809924882592    -0.076520336435     1.850697522870
    H           -2.569228592148    -1.636128586797     4.058304150566
    O           -0.171254623252    -1.712424878182     2.896528456858
    H           -1.412029141468     2.362411868003     0.228077571700
    H           -0.542148386119    -1.028465759316    -2.227498285297
    H           -2.196097756924     3.604497140365    -1.761179700615
    H           -1.299898052901     0.209273204383    -4.220707808796
    H           -2.116668111299     2.539530506871    -3.998816372102
    H            3.708880807673    -0.379395640939    -2.994201121036
    H            5.088863513513     0.369448214603     0.995623077171
    H           -3.413375683558     0.511434777492     0.522400379431
    H           -4.439927287201    -0.430738652567     2.810926520838
    H            5.541619906242     0.242989998592    -1.445130455748

*** Psi4 exiting successfully. Buy a developer a beer!
