                               Psi4 1.5 release

  ==> Input File <==

--------------------------------------------------------------------------
molecule {
0 1
 C   -0.499154   -0.161549    0.345814
 N    0.715243   -0.755421    0.522085
 C    1.976377   -0.477978   -0.082855
 C    2.241024   -0.576156   -1.448562
 H    0.763072   -1.295457    1.393010
 C    3.019378   -0.142217    0.791247
 C   -1.489790   -0.415857    1.274612
 N   -2.444610   -1.179278    3.175888
 C   -2.894851   -0.032570    1.291686
 C   -1.244097   -1.166651    2.500893
 C   -3.433779   -0.502426    2.439351
 C   -0.831185    0.617708   -0.877523
 C   -1.365522    1.904761   -0.750670
 C   -0.843749    0.005170   -2.135620
 C   -1.809505    2.600698   -1.871499
 C   -1.296699    0.696137   -3.254999
 C   -1.767491    2.001434   -3.128195
 C    3.520251   -0.305064   -1.931805
 C    4.296877    0.109945    0.306352
 C    4.551089    0.039210   -1.062720
 H    1.471681   -0.878375   -2.136126
 H    2.809925   -0.076520    1.850698
 H   -2.569229   -1.636129    4.058304
 O   -0.171255   -1.712425    2.896528
 H   -1.412029    2.362412    0.228078
 H   -0.542148   -1.028466   -2.227498
 H   -2.196098    3.604497   -1.761180
 H   -1.299898    0.209273   -4.220708
 H   -2.116668    2.539531   -3.998816
 H    3.708881   -0.379396   -2.994201
 H    5.088864    0.369448    0.995623
 H   -3.413376    0.511435    0.522400
 H   -4.439927   -0.430739    2.810927
 H    5.541620    0.242990   -1.445130
}
memory 8.166666666666666GB
set_num_threads(2)
psi4_io.set_default_path("/scratch/bdw2292/Psi4-1_16_Index_0-farH_in17")
set freeze_core True
E, wfn = energy('wb97x-d/6-311+G*',return_wfn=True)
oeprop(wfn,"WIBERG_LOWDIN_INDICES")
clean()
--------------------------------------------------------------------------

    Molecular point group: c1

    Geometry (in Angstrom), charge = 0, multiplicity = 1:

       Center              X                  Y                   Z               Mass
    ------------   -----------------  -----------------  -----------------  -----------------
         C           -0.499154031104    -0.161549057936     0.345814048561    12.000000000000
         N            0.715242968896    -0.755421057936     0.522085048561    14.003074004430
         C            1.976376968896    -0.477978057936    -0.082854951439    12.000000000000
         C            2.241023968896    -0.576156057936    -1.448561951439    12.000000000000
         H            0.763071968896    -1.295457057936     1.393010048561     1.007825032230
         C            3.019377968896    -0.142217057936     0.791247048561    12.000000000000
         C           -1.489790031104    -0.415857057936     1.274612048561    12.000000000000
         N           -2.444610031104    -1.179278057936     3.175888048561    14.003074004430
         C           -2.894851031104    -0.032570057936     1.291686048561    12.000000000000
         C           -1.244097031104    -1.166651057936     2.500893048561    12.000000000000
         C           -3.433779031104    -0.502426057936     2.439351048561    12.000000000000
         C           -0.831185031104     0.617707942064    -0.877522951439    12.000000000000
         C           -1.365522031104     1.904760942064    -0.750669951439    12.000000000000
         C           -0.843749031104     0.005169942064    -2.135619951439    12.000000000000
         C           -1.809505031104     2.600697942064    -1.871498951439    12.000000000000
         C           -1.296699031104     0.696136942064    -3.254998951439    12.000000000000
         C           -1.767491031104     2.001433942064    -3.128194951439    12.000000000000
         C            3.520250968896    -0.305064057936    -1.931804951439    12.000000000000
         C            4.296876968896     0.109944942064     0.306352048561    12.000000000000
         C            4.551088968896     0.039209942064    -1.062719951439    12.000000000000
         H            1.471680968896    -0.878375057936    -2.136125951439     1.007825032230
         H            2.809924968896    -0.076520057936     1.850698048561     1.007825032230
         H           -2.569229031104    -1.636129057936     4.058304048561     1.007825032230
         O           -0.171255031104    -1.712425057936     2.896528048561    15.994914619570
         H           -1.412029031104     2.362411942064     0.228078048561     1.007825032230
         H           -0.542148031104    -1.028466057936    -2.227497951439     1.007825032230
         H           -2.196098031104     3.604496942064    -1.761179951439     1.007825032230
         H           -1.299898031104     0.209272942064    -4.220707951439     1.007825032230
         H           -2.116668031104     2.539530942064    -3.998815951439     1.007825032230
         H            3.708880968896    -0.379396057936    -2.994200951439     1.007825032230
         H            5.088863968896     0.369447942064     0.995623048561     1.007825032230
         H           -3.413376031104     0.511434942064     0.522400048561     1.007825032230
         H           -4.439927031104    -0.430739057936     2.810927048561     1.007825032230
         H            5.541619968896     0.242989942064    -1.445129951439     1.007825032230

  Charge       = 0
  Multiplicity = 1
  Basis Set: 6-311+G*
    Blend: 6-311+G*
  Basis Set: (6-311+G* AUX)
    Blend: HEAVY-AUG-CC-PVTZ-JKFIT

    Orbital Energies [Eh]
    ---------------------

    Doubly Occupied:

       1A    -19.204844     2A    -14.467952     3A    -14.464506
       4A    -10.377248     5A    -10.366369     6A    -10.340459
       7A    -10.318505     8A    -10.315174     9A    -10.307589
      10A    -10.305012    11A    -10.304530    12A    -10.303733
      13A    -10.302883    14A    -10.296314    15A    -10.295596
      16A    -10.295419    17A    -10.293722    18A    -10.292911
      19A    -10.281678    20A    -10.277959    21A     -1.122235
      22A     -1.066087    23A     -1.047195    24A     -0.981109
      25A     -0.963496    26A     -0.909274    27A     -0.872047
      28A     -0.864755    29A     -0.856859    30A     -0.853823
      31A     -0.812371    32A     -0.767661    33A     -0.725687
      34A     -0.724552    35A     -0.711473    36A     -0.694425
      37A     -0.679098    38A     -0.665411    39A     -0.639523
      40A     -0.616361    41A     -0.599269    42A     -0.584409
      43A     -0.579165    44A     -0.561719    45A     -0.552561
      46A     -0.549576    47A     -0.537672    48A     -0.526130
      49A     -0.519210    50A     -0.515854    51A     -0.514836
      52A     -0.509392    53A     -0.495944    54A     -0.482934
      55A     -0.474192    56A     -0.469722    57A     -0.451939
      58A     -0.451459    59A     -0.445005    60A     -0.438937
      61A     -0.427213    62A     -0.404152    63A     -0.358674
      64A     -0.347269    65A     -0.344703    66A     -0.335283
      67A     -0.333693    68A     -0.315325    69A     -0.259479

  @DF-RKS Final Energy:  -840.86347584059274

   => Energetics <=

    Nuclear Repulsion Energy =           1417.6683184827563764
    One-Electron Energy =               -3954.1295168122687755
    Two-Electron Energy =                1778.3028299397612955
    DFT Exchange-Correlation Energy =     -82.6812515276507582
    Empirical Dispersion Energy =          -0.0238559231907272
    VV10 Nonlocal Energy =                  0.0000000000000000
    Total Energy =                       -840.8634758405927414

  Dipole Moment: [D]
     X:    -1.2775      Y:     1.9818      Z:    -2.4319     Total:     3.3873

*** Psi4 exiting successfully. Buy a developer a beer!
