                               Psi4 1.5 release

  ==> Input File <==

--------------------------------------------------------------------------
molecule {
0 1
 C   -0.509156   -0.039972    0.344324
 N    0.768624   -0.561856    0.552397
 C    2.060823   -0.315538    0.006305
 C    2.326623    0.115026   -1.319218
 H    0.803455   -1.115729    1.429183
 C    3.171371   -0.519213    0.877107
 C   -1.499973   -0.316880    1.301512
 N   -2.442701   -1.048123    3.244139
 C   -2.922994   -0.058168    1.276746
 C   -1.234646   -0.990193    2.594419
 C   -3.450874   -0.497707    2.451562
 C   -0.881396    0.639095   -0.926245
 C   -1.500760    1.915542   -0.904024
 C   -0.828699   -0.067937   -2.156241
 C   -1.964149    2.503114   -2.088402
 C   -1.289962    0.524631   -3.338777
 C   -1.852082    1.816747   -3.314495
 C    3.644535    0.315589   -1.756695
 C    4.483546   -0.315543    0.430543
 C    4.732652    0.101069   -0.890097
 H    1.527276    0.307437   -2.026188
 H    3.006096   -0.839718    1.909393
 H   -2.541409   -1.453143    4.163619
 O   -0.144365   -1.437018    3.034402
 H   -1.605321    2.443780    0.045849
 H   -0.426808   -1.083375   -2.173987
 H   -2.414595    3.496781   -2.059828
 H   -1.214425   -0.020365   -4.281326
 H   -2.206007    2.279322   -4.237643
 H    3.821391    0.643189   -2.782897
 H    5.314329   -0.484284    1.117861
 H   -3.481607    0.404591    0.474871
 H   -4.471145   -0.473409    2.807923
 H    5.755515    0.257600   -1.237203
}
set optking {
  frozen_dihedral = ("
    1 2 3 4
    2 1 12 13
    7 1 2 3
  ")
}
set {
  geom_maxiter 400
  g_convergence GAU_LOOSE
  dynamic_level 1
}
memory 8.166666666666666GB
set_num_threads(2)
psi4_io.set_default_path("/scratch/bdw2292/Psi4-1_16_Index_0-farH_in17")
for _ in range(1):
  try:
    set opt_coordinates both
    optimize('wb97x-d/6-311G')
    break
  except OptimizationConvergenceError:
    break
  else:
    try:
      set opt_coordinates cartesian
      optimize('wb97x-d/6-311G')
      break
    except OptimizationConvergenceError:
      pass
clean()
--------------------------------------------------------------------------

    Molecular point group: c1
  Charge       = 0
  Multiplicity = 1
  Basis Set: 6-311G
    Blend: 6-311G
  Basis Set: (6-311G AUX)
    Blend: CC-PVTZ-JKFIT
  @DF-RKS Final Energy:  -840.64208881214972
    Total Energy =                       -840.6420888121498365
    Molecular point group: c1
  Basis Set: 6-311G
    Blend: 6-311G
  Basis Set: (6-311G AUX)
    Blend: CC-PVTZ-JKFIT
  Basis Set: 6-311G
    Blend: 6-311G
  Basis Set: (6-311G AUX)
    Blend: CC-PVTZ-JKFIT
  @DF-RKS Final Energy:  -840.64864054244856
    Total Energy =                       -840.6486405424486748
  Basis Set: 6-311G
    Blend: 6-311G
  Basis Set: (6-311G AUX)
    Blend: CC-PVTZ-JKFIT
  Basis Set: 6-311G
    Blend: 6-311G
  @DF-RKS Final Energy:  -840.64897692158934
    Total Energy =                       -840.6489769215892238
  @DF-RKS Final Energy:  -840.64890053961426
    Total Energy =                       -840.6489005396142602
  @DF-RKS Final Energy:  -840.64909860592957
    Total Energy =                       -840.6490986059296802
  Basis Set: (6-311G AUX)
    Blend: CC-PVTZ-JKFIT
  Basis Set: 6-311G
    Blend: 6-311G
  Basis Set: (6-311G AUX)
    Blend: CC-PVTZ-JKFIT
  @DF-RKS Final Energy:  -840.64910575451302
    Total Energy =                       -840.6491057545130161
  Basis Set: 6-311G
    Blend: 6-311G
  Basis Set: (6-311G AUX)
    Blend: CC-PVTZ-JKFIT
  Charge       = 0
  Multiplicity = 1
  Basis Set: 6-311G
    Blend: 6-311G
  Basis Set: (6-311G AUX)
    Blend: CC-PVTZ-JKFIT

    Orbital Energies [Eh]
    ---------------------

    Doubly Occupied:

       1A    -19.208153     2A    -14.474000     3A    -14.468310
       4A    -10.388389     5A    -10.372346     6A    -10.347310
       7A    -10.323944     8A    -10.319743     9A    -10.310107
      10A    -10.309194    11A    -10.308332    12A    -10.307714
      13A    -10.307205    14A    -10.294938    15A    -10.294608
      16A    -10.292692    17A    -10.291894    18A    -10.290684
      19A    -10.289316    20A    -10.282001    21A     -1.138950
      22A     -1.074214    23A     -1.058148    24A     -0.987889
      25A     -0.966715    26A     -0.915468    27A     -0.878308
      28A     -0.870004    29A     -0.858619    30A     -0.856764
      31A     -0.817991    32A     -0.774287    33A     -0.730150
      34A     -0.729286    35A     -0.714996    36A     -0.698643
      37A     -0.682960    38A     -0.666693    39A     -0.643057
      40A     -0.618515    41A     -0.601427    42A     -0.586239
      43A     -0.583736    44A     -0.567625    45A     -0.555774
      46A     -0.542788    47A     -0.536667    48A     -0.531040
      49A     -0.525380    50A     -0.519080    51A     -0.516198
      52A     -0.512820    53A     -0.497318    54A     -0.493134
      55A     -0.478039    56A     -0.475627    57A     -0.451148
      58A     -0.450377    59A     -0.446000    60A     -0.437744
      61A     -0.429786    62A     -0.405442    63A     -0.366460
      64A     -0.349529    65A     -0.341379    66A     -0.335316
      67A     -0.333687    68A     -0.308046    69A     -0.255873

  @DF-RKS Final Energy:  -840.64910804470674

   => Energetics <=

    Nuclear Repulsion Energy =           1416.8085367720582326
    One-Electron Energy =               -3951.5384638232449106
    Two-Electron Energy =                1776.7782073577811843
    DFT Exchange-Correlation Energy =     -82.6734282884514613
    Empirical Dispersion Energy =          -0.0239600628497174
    VV10 Nonlocal Energy =                  0.0000000000000000
    Total Energy =                       -840.6491080447066224

  Dipole Moment: [D]
     X:    -1.9006      Y:     1.6543      Z:    -2.2855     Total:     3.4018

    Molecular point group: c1
  Basis Set: 6-311G
    Blend: 6-311G
  Basis Set: (6-311G AUX)
    Blend: CC-PVTZ-JKFIT

  -Total Gradient:
     Atom            X                  Y                   Z
    ------   -----------------  -----------------  -----------------
       1        0.001894595647     0.010591275084     0.005657954262
       2       -0.001385249801    -0.005881861961    -0.001358119727
       3       -0.000640799757     0.002798975874    -0.000565715935
       4        0.000001637694    -0.002785527962    -0.000618899301
       5        0.000068407200     0.000131101847     0.000236995981
       6       -0.000124177775    -0.000147670517    -0.000211969212
       7       -0.001311036349    -0.003117252390    -0.001853476941
       8       -0.000011214155     0.000183749740    -0.000058972047
       9        0.000006754818    -0.000156380681    -0.000072928110
      10        0.000183939718    -0.000453668995    -0.000131787131
      11        0.000017401650     0.000091299400     0.000036412693
      12        0.005879264975     0.000914976473    -0.001457878758
      13       -0.004335168512    -0.002034145815     0.000135622558
      14       -0.000058682944     0.000097873366     0.000016565797
      15       -0.000001983525    -0.000076601161    -0.000023185775
      16       -0.000046785399     0.000041752872     0.000145380418
      17        0.000020323892    -0.000018064290     0.000073015449
      18        0.000008804080    -0.000043403531     0.000091458980
      19       -0.000037520910     0.000001028098    -0.000086493344
      20       -0.000037748115    -0.000005535978     0.000062224729
      21        0.000017953066    -0.000036011720    -0.000130373408
      22       -0.000021340469     0.000009962864     0.000075827108
      23       -0.000035467982    -0.000002355268     0.000057708957
      24        0.000041432414    -0.000117367085     0.000146333566
      25       -0.000067991365    -0.000014983242     0.000048246167
      26        0.000032548838    -0.000008808817     0.000027839159
      27       -0.000029459581     0.000041581039    -0.000031791131
      28        0.000016244280    -0.000022373661    -0.000087269290
      29        0.000017720087     0.000033870137    -0.000062775219
      30        0.000022690885     0.000006530362    -0.000032819357
      31        0.000071168602     0.000030242368     0.000048817812
      32       -0.000030636487     0.000014363281    -0.000027125476
      33       -0.000047637854     0.000020782188     0.000038481988
      34        0.000076118140     0.000001214817    -0.000003450238

  **** Optimization is complete! (in 7 steps) ****
    Final optimized geometry and variables:
    Molecular point group: c1

    Geometry (in Angstrom), charge = 0, multiplicity = 1:

    C           -0.501261365309    -0.083673719529     0.347152103768
    N            0.741723656905    -0.613084797418     0.534664006978
    C            2.005180196606    -0.344195560312    -0.047248216841
    C            2.238371604678     0.103911150576    -1.351302783984
    H            0.799911711675    -1.136971057680     1.414540629988
    C            3.107884374794    -0.617439491468     0.779495106776
    C           -1.470216679669    -0.351623305126     1.294125663777
    N           -2.385259773805    -1.118630237661     3.214519010271
    C           -2.892370365942    -0.037880678625     1.305505882422
    C           -1.187874108176    -1.064391197559     2.537459065818
    C           -3.406041861360    -0.505594352406     2.465096344136
    C           -0.899241417127     0.583699479376    -0.920842943124
    C           -1.490006832317     1.849321657740    -0.897942771724
    C           -0.870011070865    -0.134737233840    -2.122682595504
    C           -1.986039437860     2.416185576263    -2.070117289644
    C           -1.374529568156     0.427879644204    -3.289860738256
    C           -1.926022209433     1.708975957588    -3.267895563200
    C            3.545903301765     0.287593383199    -1.799506911633
    C            4.405117509778    -0.442067094466     0.318986802201
    C            4.634635918423     0.015330242304    -0.978001191518
    H            1.426494880659     0.325842516661    -2.019875673524
    H            2.932823663318    -0.959501196069     1.791704646747
    H           -2.488501057292    -1.567147616535     4.103914480989
    O           -0.093970544750    -1.561477440668     2.936699872171
    H           -1.547403048405     2.389863066121     0.036993840230
    H           -0.462211566451    -1.136840283038    -2.132253378881
    H           -2.424571849716     3.404287817722    -2.044354597377
    H           -1.348307270561    -0.135742670678    -4.212450369825
    H           -2.316083746514     2.146357734065    -4.176759544919
    H            3.705074705816     0.640847271904    -2.809512337623
    H            5.236042134261    -0.657370116550     0.976956590364
    H           -3.437767816499     0.463372434343     0.526052035310
    H           -4.413427065941    -0.470456598011     2.838545336152
    H            5.643582361048     0.155863905003    -1.339755024931

*** Psi4 exiting successfully. Buy a developer a beer!
