                               Psi4 1.5 release

  ==> Input File <==

--------------------------------------------------------------------------
molecule {
0 1
 C   -0.635001   -0.370997    0.206440
 N    0.504249   -1.148758    0.067415
 C    1.768536   -0.803266   -0.466730
 C    2.525480    0.251450    0.098211
 H    0.476632   -2.023646    0.626622
 C    2.275428   -1.503825   -1.587420
 C   -1.668867   -0.825756    1.036824
 N   -2.760511   -2.126868    2.552811
 C   -3.009817   -0.320161    1.227152
 C   -1.558489   -2.024762    1.896778
 C   -3.627481   -1.110574    2.146822
 C   -0.693657    0.958594   -0.468035
 C   -1.082372    2.119300    0.250711
 C   -0.427519    1.075211   -1.858076
 C   -1.179780    3.357858   -0.397059
 C   -0.522590    2.317283   -2.499264
 C   -0.898054    3.465920   -1.773886
 C    3.765907    0.598151   -0.454087
 C    3.516645   -1.148391   -2.133201
 C    4.271153   -0.096336   -1.573123
 H    2.142524    0.796659    0.963234
 H    1.699144   -2.320675   -2.027131
 H   -2.949851   -2.861152    3.219310
 O   -0.586634   -2.813142    2.016839
 H   -1.300504    2.044539    1.317684
 H   -0.149093    0.189246   -2.431529
 H   -1.475977    4.242408    0.169650
 H   -0.308062    2.393538   -3.566751
 H   -0.972781    4.432482   -2.275663
 H    4.339668    1.413111   -0.009838
 H    3.896176   -1.694407   -2.998538
 H   -3.453382    0.534421    0.735297
 H   -4.625190   -1.049754    2.558546
 H    5.237222    0.177642   -2.001127
}
set optking {
  frozen_dihedral = ("
    1 2 3 4
    2 1 12 13
    7 1 2 3
  ")
}
set {
  geom_maxiter 400
  g_convergence GAU_LOOSE
  dynamic_level 1
}
memory 8.166666666666666GB
set_num_threads(2)
psi4_io.set_default_path("/scratch/bdw2292/Psi4-1_16_Index_0-farH_in17")
for _ in range(1):
  try:
    set opt_coordinates both
    optimize('wb97x-d/6-311G')
    break
  except OptimizationConvergenceError:
    break
  else:
    try:
      set opt_coordinates cartesian
      optimize('wb97x-d/6-311G')
      break
    except OptimizationConvergenceError:
      pass
clean()
--------------------------------------------------------------------------

    Molecular point group: c1
  Charge       = 0
  Multiplicity = 1
  Basis Set: 6-311G
    Blend: 6-311G
  Basis Set: (6-311G AUX)
    Blend: CC-PVTZ-JKFIT
  @DF-RKS Final Energy:  -840.64666879259596
    Total Energy =                       -840.6466687925959604
    Molecular point group: c1
  Basis Set: 6-311G
    Blend: 6-311G
  Basis Set: (6-311G AUX)
    Blend: CC-PVTZ-JKFIT
  Basis Set: 6-311G
    Blend: 6-311G
  Basis Set: (6-311G AUX)
    Blend: CC-PVTZ-JKFIT
  @DF-RKS Final Energy:  -840.64289596016135
    Total Energy =                       -840.6428959601612405
  Basis Set: 6-311G
    Blend: 6-311G
  Basis Set: (6-311G AUX)
    Blend: CC-PVTZ-JKFIT
  Basis Set: 6-311G
    Blend: 6-311G
  @DF-RKS Final Energy:  -840.65388166591572
    Total Energy =                       -840.6538816659157192
  @DF-RKS Final Energy:  -840.65435313024989
    Total Energy =                       -840.6543531302497740
  @DF-RKS Final Energy:  -840.65434488071151
    Total Energy =                       -840.6543448807116192
  @DF-RKS Final Energy:  -840.65435319800349
    Total Energy =                       -840.6543531980033777
  @DF-RKS Final Energy:  -840.65425490017174
    Total Energy =                       -840.6542549001718498
  @DF-RKS Final Energy:  -840.65444162931624
    Total Energy =                       -840.6544416293162385
  @DF-RKS Final Energy:  -840.65454791958700
    Total Energy =                       -840.6545479195871167
  Basis Set: (6-311G AUX)
    Blend: CC-PVTZ-JKFIT
  Basis Set: 6-311G
    Blend: 6-311G
  Basis Set: (6-311G AUX)
    Blend: CC-PVTZ-JKFIT
  @DF-RKS Final Energy:  -840.65456415154847
    Total Energy =                       -840.6545641515484704
  Basis Set: 6-311G
    Blend: 6-311G
  Basis Set: (6-311G AUX)
    Blend: CC-PVTZ-JKFIT
  Charge       = 0
  Multiplicity = 1
  Basis Set: 6-311G
    Blend: 6-311G
  Basis Set: (6-311G AUX)
    Blend: CC-PVTZ-JKFIT

    Orbital Energies [Eh]
    ---------------------

    Doubly Occupied:

       1A    -19.201908     2A    -14.465296     3A    -14.463830
       4A    -10.382731     5A    -10.367002     6A    -10.342518
       7A    -10.318600     8A    -10.315976     9A    -10.304796
      10A    -10.304470    11A    -10.303672    12A    -10.302813
      13A    -10.302171    14A    -10.300826    15A    -10.300169
      16A    -10.299465    17A    -10.299040    18A    -10.298301
      19A    -10.284704    20A    -10.278923    21A     -1.132979
      22A     -1.070583    23A     -1.053185    24A     -0.982567
      25A     -0.969706    26A     -0.910072    27A     -0.873562
      28A     -0.864908    29A     -0.862738    30A     -0.857893
      31A     -0.816465    32A     -0.769256    33A     -0.727502
      34A     -0.721621    35A     -0.719279    36A     -0.696828
      37A     -0.680700    38A     -0.669276    39A     -0.640199
      40A     -0.620331    41A     -0.597495    42A     -0.582749
      43A     -0.582161    44A     -0.567858    45A     -0.556505
      46A     -0.548654    47A     -0.538394    48A     -0.527137
      49A     -0.523151    50A     -0.520838    51A     -0.514740
      52A     -0.509422    53A     -0.494259    54A     -0.479031
      55A     -0.473872    56A     -0.471117    57A     -0.453054
      58A     -0.450893    59A     -0.444372    60A     -0.440723
      61A     -0.425681    62A     -0.400645    63A     -0.358908
      64A     -0.344933    65A     -0.341162    66A     -0.335403
      67A     -0.329617    68A     -0.314303    69A     -0.256051

  @DF-RKS Final Energy:  -840.65460554229890

   => Energetics <=

    Nuclear Repulsion Energy =           1430.0582184418638008
    One-Electron Energy =               -3978.3187156922904251
    Two-Electron Energy =                1790.3053645825223157
    DFT Exchange-Correlation Energy =     -82.6749569619246500
    Empirical Dispersion Energy =          -0.0245159124697358
    VV10 Nonlocal Energy =                  0.0000000000000000
    Total Energy =                       -840.6546055422988957

  Dipole Moment: [D]
     X:    -0.1394      Y:     3.3337      Z:    -0.9831     Total:     3.4784

    Molecular point group: c1
  Basis Set: 6-311G
    Blend: 6-311G
  Basis Set: (6-311G AUX)
    Blend: CC-PVTZ-JKFIT

  -Total Gradient:
     Atom            X                  Y                   Z
    ------   -----------------  -----------------  -----------------
       1       -0.001669713661    -0.001027556841    -0.003859346513
       2        0.001235338691    -0.001006128130     0.002687042401
       3       -0.001925449793     0.003527979041    -0.002100139683
       4        0.001372233770    -0.002204739968     0.001396066820
       5       -0.000164532309    -0.000195634107    -0.000149029786
       6        0.000058715323    -0.000053550289     0.000094036267
       7        0.000636880547     0.000441933375     0.001388855605
       8       -0.000082395583    -0.000146121886     0.000029876171
       9        0.000340076993     0.000315781312     0.000492112694
      10        0.000234432982     0.000425994184     0.000310213381
      11       -0.000190202937    -0.000286520927    -0.000288564736
      12        0.001526543630     0.000172965261    -0.000179001960
      13       -0.001093578532     0.000002656444    -0.000253737869
      14       -0.000034843946    -0.000052821364     0.000218755967
      15       -0.000001210212    -0.000104288726    -0.000103060367
      16       -0.000046420072    -0.000044704485     0.000007418058
      17        0.000090970866    -0.000003491859     0.000204452409
      18       -0.000057097659     0.000011719235    -0.000080848746
      19       -0.000357580895     0.000223531806    -0.000181926207
      20        0.000135682336    -0.000146252101     0.000321482282
      21        0.000067850234    -0.000075180986    -0.000024481841
      22       -0.000015146499    -0.000008199631     0.000006831268
      23       -0.000096179975     0.000049429749    -0.000045278254
      24        0.000129748994     0.000094640763    -0.000053026215
      25       -0.000033336877    -0.000036539405    -0.000021255271
      26        0.000017931071     0.000010119839    -0.000006802612
      27        0.000014638609    -0.000000083853     0.000030855603
      28       -0.000004890030     0.000021483219     0.000055750746
      29       -0.000038211571    -0.000025052119     0.000014355710
      30        0.000047564796    -0.000005805719     0.000001879073
      31        0.000016009212    -0.000009961475     0.000045898084
      32        0.000079815789     0.000012477791     0.000032496284
      33       -0.000055477204    -0.000042626498     0.000023782091
      34       -0.000038101226     0.000014698775     0.000021165187

  **** Optimization is complete! (in 5 steps) ****
    Final optimized geometry and variables:
    Molecular point group: c1

    Geometry (in Angstrom), charge = 0, multiplicity = 1:

    C           -0.617551509376    -0.330072249888     0.262938864072
    N            0.430667890946    -1.143571528773    -0.041655126372
    C            1.689200897701    -0.720938858919    -0.559771427858
    C            2.480379428107     0.180415055884     0.153575793128
    H            0.332518871909    -2.106851406210     0.289686496295
    C            2.161085174647    -1.269248872784    -1.752195136603
    C           -1.652912452785    -0.821580329625     1.029099818114
    N           -2.821137958031    -2.308047300119     2.267723183937
    C           -2.914886341706    -0.217897293293     1.434762479834
    C           -1.640271455341    -2.175805438398     1.568951436654
    C           -3.585101567875    -1.130706454249     2.174141876791
    C           -0.611450522871     1.065102915310    -0.246564447774
    C           -0.860590199244     2.133733683019     0.620538139596
    C           -0.373635017812     1.323927192451    -1.600908571205
    C           -0.860679716194     3.441343676520     0.142229979239
    C           -0.381204818982     2.629945094220    -2.077409520561
    C           -0.621287939222     3.692019758019    -1.206778568206
    C            3.720470938190     0.563574133647    -0.347345989427
    C            3.409758428777    -0.895381749624    -2.242415527396
    C            4.189046759711     0.026008208348    -1.545038792638
    H            2.114061634824     0.578590614187     1.089347922482
    H            1.543345361534    -1.977625268241    -2.287314027785
    H           -3.083729397937    -3.150105084692     2.741540110463
    O           -0.761573500490    -3.076103418000     1.430927147383
    H           -1.036438749766     1.936263591293     1.669065689908
    H           -0.185636752706     0.502070443983    -2.277182492374
    H           -1.043403465286     4.261739540220     0.822750607737
    H           -0.198447948151     2.818687730114    -3.126170544328
    H           -0.621970560504     4.707630104370    -1.578266171458
    H            4.324973794119     1.270969205731     0.203517278627
    H            3.772396567160    -1.321524710425    -3.167763181906
    H           -3.260848135729     0.767347619715     1.178019714219
    H           -4.547431862002    -1.063767902479     2.648674485205
    H            5.155851371504     0.319575087977    -1.929844117737

*** Psi4 exiting successfully. Buy a developer a beer!
