                               Psi4 1.5 release

  ==> Input File <==

--------------------------------------------------------------------------
molecule {
0 1
 C   -0.553161   -0.053220    0.420668
 N    0.525556   -0.853129    0.146636
 C    1.832774   -0.547240   -0.302278
 C    2.495516   -1.499501   -1.080258
 H    0.440698   -1.802098    0.542315
 C    2.522137    0.594623    0.123792
 C   -1.563818   -0.689473    1.162295
 N   -2.481465   -2.369778    2.411656
 C   -2.925717   -0.338874    1.570784
 C   -1.343067   -2.033908    1.721973
 C   -3.430292   -1.350581    2.311997
 C   -0.763294    1.215923   -0.364200
 C   -1.953898    1.956205   -0.265796
 C    0.052138    1.518095   -1.474538
 C   -2.262269    2.991120   -1.141393
 C   -0.251378    2.551016   -2.354209
 C   -1.409713    3.302468   -2.193637
 C    3.813327   -1.284642   -1.475871
 C    3.831263    0.810986   -0.288874
 C    4.482911   -0.124911   -1.093271
 H    1.967933   -2.395002   -1.378996
 H    2.025853    1.305750    0.769409
 H   -2.588946   -3.250502    2.875352
 O   -0.345460   -2.809137    1.601047
 H   -2.623051    1.792689    0.553999
 H    0.925709    0.934934   -1.694243
 H   -3.179014    3.546352   -0.998760
 H    0.415146    2.746688   -3.182692
 H   -1.649153    4.102145   -2.880648
 H    4.313957   -2.026136   -2.083280
 H    4.350365    1.702678    0.035110
 H   -3.492336    0.540830    1.347259
 H   -4.394433   -1.440843    2.778340
 H    5.504332    0.042604   -1.405006
}
memory 8.166666666666666GB
set_num_threads(2)
psi4_io.set_default_path("/scratch/bdw2292/Psi4-1_16_Index_0-farH_in17")
set freeze_core True
E, wfn = energy('wb97x-d/6-311+G*',return_wfn=True)
oeprop(wfn,"WIBERG_LOWDIN_INDICES")
clean()
--------------------------------------------------------------------------

    Molecular point group: c1

    Geometry (in Angstrom), charge = 0, multiplicity = 1:

       Center              X                  Y                   Z               Mass
    ------------   -----------------  -----------------  -----------------  -----------------
         C           -0.553161037702    -0.053219981623     0.420668073595    12.000000000000
         N            0.525555962298    -0.853128981623     0.146636073595    14.003074004430
         C            1.832773962298    -0.547239981623    -0.302277926405    12.000000000000
         C            2.495515962298    -1.499500981623    -1.080257926405    12.000000000000
         H            0.440697962298    -1.802097981623     0.542315073595     1.007825032230
         C            2.522136962298     0.594623018377     0.123792073595    12.000000000000
         C           -1.563818037702    -0.689472981623     1.162295073595    12.000000000000
         N           -2.481465037702    -2.369777981623     2.411656073595    14.003074004430
         C           -2.925717037702    -0.338873981623     1.570784073595    12.000000000000
         C           -1.343067037702    -2.033907981623     1.721973073595    12.000000000000
         C           -3.430292037702    -1.350580981623     2.311997073595    12.000000000000
         C           -0.763294037702     1.215923018377    -0.364199926405    12.000000000000
         C           -1.953898037702     1.956205018377    -0.265795926405    12.000000000000
         C            0.052137962298     1.518095018377    -1.474537926405    12.000000000000
         C           -2.262269037702     2.991120018377    -1.141392926405    12.000000000000
         C           -0.251378037702     2.551016018377    -2.354208926405    12.000000000000
         C           -1.409713037702     3.302468018377    -2.193636926405    12.000000000000
         C            3.813326962298    -1.284641981623    -1.475870926405    12.000000000000
         C            3.831262962298     0.810986018377    -0.288873926405    12.000000000000
         C            4.482910962298    -0.124910981623    -1.093270926405    12.000000000000
         H            1.967932962298    -2.395001981623    -1.378995926405     1.007825032230
         H            2.025852962298     1.305750018377     0.769409073595     1.007825032230
         H           -2.588946037702    -3.250501981623     2.875352073595     1.007825032230
         O           -0.345460037702    -2.809136981623     1.601047073595    15.994914619570
         H           -2.623051037702     1.792689018377     0.553999073595     1.007825032230
         H            0.925708962298     0.934934018377    -1.694242926405     1.007825032230
         H           -3.179014037702     3.546352018377    -0.998759926405     1.007825032230
         H            0.415145962298     2.746688018377    -3.182691926405     1.007825032230
         H           -1.649153037702     4.102145018377    -2.880647926405     1.007825032230
         H            4.313956962298    -2.026135981623    -2.083279926405     1.007825032230
         H            4.350364962298     1.702678018377     0.035110073595     1.007825032230
         H           -3.492336037702     0.540830018377     1.347259073595     1.007825032230
         H           -4.394433037702    -1.440842981623     2.778340073595     1.007825032230
         H            5.504331962298     0.042604018377    -1.405005926405     1.007825032230

  Charge       = 0
  Multiplicity = 1
  Basis Set: 6-311+G*
    Blend: 6-311+G*
  Basis Set: (6-311+G* AUX)
    Blend: HEAVY-AUG-CC-PVTZ-JKFIT

    Orbital Energies [Eh]
    ---------------------

    Doubly Occupied:

       1A    -19.211416     2A    -14.468842     3A    -14.461501
       4A    -10.382654     5A    -10.375208     6A    -10.339442
       7A    -10.322498     8A    -10.319853     9A    -10.302712
      10A    -10.302324    11A    -10.299708    12A    -10.299646
      13A    -10.298267    14A    -10.296744    15A    -10.296596
      16A    -10.294158    17A    -10.293927    18A    -10.293218
      19A    -10.292100    20A    -10.283242    21A     -1.131132
      22A     -1.066224    23A     -1.052775    24A     -0.977035
      25A     -0.963315    26A     -0.907036    27A     -0.873528
      28A     -0.861128    29A     -0.856536    30A     -0.855190
      31A     -0.815065    32A     -0.768512    33A     -0.727437
      34A     -0.721750    35A     -0.712027    36A     -0.694124
      37A     -0.684933    38A     -0.664460    39A     -0.636736
      40A     -0.614998    41A     -0.603268    42A     -0.584749
      43A     -0.581860    44A     -0.561118    45A     -0.553775
      46A     -0.537067    47A     -0.535505    48A     -0.528425
      49A     -0.527391    50A     -0.517586    51A     -0.515450
      52A     -0.504263    53A     -0.501102    54A     -0.486496
      55A     -0.479771    56A     -0.475916    57A     -0.450389
      58A     -0.448087    59A     -0.443406    60A     -0.432090
      61A     -0.430933    62A     -0.410196    63A     -0.365010
      64A     -0.347015    65A     -0.344635    66A     -0.336137
      67A     -0.333783    68A     -0.307416    69A     -0.260713

  @DF-RKS Final Energy:  -840.84695296258951

   => Energetics <=

    Nuclear Repulsion Energy =           1419.6187005928111375
    One-Electron Energy =               -3957.8956300512709277
    Two-Electron Energy =                1780.1374902541795109
    DFT Exchange-Correlation Energy =     -82.6838377139730625
    Empirical Dispersion Energy =          -0.0236760443364735
    VV10 Nonlocal Energy =                  0.0000000000000000
    Total Energy =                       -840.8469529625896257

  Dipole Moment: [D]
     X:    -1.2837      Y:     2.3006      Z:    -0.9794     Total:     2.8107

*** Psi4 exiting successfully. Buy a developer a beer!
