                               Psi4 1.5 release

  ==> Input File <==

--------------------------------------------------------------------------
molecule {
0 1
 C   -0.517572   -0.072480    0.277208
 N    0.549075   -0.953268    0.175583
 C    1.844013   -0.855766   -0.393195
 C    2.465729   -2.019715   -0.913093
 H    0.464724   -1.730256    0.848826
 C    2.610976    0.332805   -0.268041
 C   -1.472839   -0.466492    1.206093
 N   -2.520290   -0.571895    3.202840
 C   -2.614273   -1.338157    1.082094
 C   -1.434131    0.016469    2.596798
 C   -3.222021   -1.375627    2.299027
 C   -0.817995    1.064057   -0.674549
 C   -2.066955    1.750745   -0.566776
 C    0.018259    1.419888   -1.774283
 C   -2.416739    2.776727   -1.454363
 C   -0.334499    2.453227   -2.654250
 C   -1.548994    3.143374   -2.497253
 C    3.787135   -1.967433   -1.378369
 C    3.929546    0.376269   -0.740830
 C    4.526100   -0.769104   -1.305694
 H    1.911461   -2.959552   -0.964880
 H    2.176403    1.220142    0.198166
 H   -2.736274   -0.410308    4.175740
 O   -0.616579    0.780327    3.150685
 H   -2.772212    1.494186    0.225050
 H    0.944075    0.888989   -1.972263
 H   -3.369702    3.294650   -1.331713
 H    0.339336    2.717945   -3.471357
 H   -1.819126    3.949318   -3.181802
 H    4.241458   -2.866334   -1.798803
 H    4.493096    1.307720   -0.664387
 H   -2.935250   -1.863358    0.193620
 H   -4.105097   -1.911486    2.618175
 H    5.552321   -0.730264   -1.675112
}
set optking {
  frozen_dihedral = ("
    2 1 12 13
    7 1 2 3
    1 2 3 4
  ")
}
set {
  geom_maxiter 400
  g_convergence GAU_LOOSE
  dynamic_level 1
}
memory 8.166666666666666GB
set_num_threads(2)
psi4_io.set_default_path("/scratch/bdw2292/Psi4-1_16_Index_0-farH_in17")
for _ in range(1):
  try:
    set opt_coordinates both
    optimize('wb97x-d/6-311G')
    break
  except OptimizationConvergenceError:
    break
  else:
    try:
      set opt_coordinates cartesian
      optimize('wb97x-d/6-311G')
      break
    except OptimizationConvergenceError:
      pass
clean()
--------------------------------------------------------------------------

    Molecular point group: c1
  Charge       = 0
  Multiplicity = 1
  Basis Set: 6-311G
    Blend: 6-311G
  Basis Set: (6-311G AUX)
    Blend: CC-PVTZ-JKFIT
  @DF-RKS Final Energy:  -840.56156126303267
    Total Energy =                       -840.5615612630326723
    Molecular point group: c1
  Basis Set: 6-311G
    Blend: 6-311G
  Basis Set: (6-311G AUX)
    Blend: CC-PVTZ-JKFIT
  Basis Set: 6-311G
    Blend: 6-311G
  Basis Set: (6-311G AUX)
    Blend: CC-PVTZ-JKFIT
  @DF-RKS Final Energy:  -840.57958649166596
    Total Energy =                       -840.5795864916658502
  Basis Set: 6-311G
    Blend: 6-311G
  Basis Set: (6-311G AUX)
    Blend: CC-PVTZ-JKFIT
  Basis Set: 6-311G
    Blend: 6-311G
  @DF-RKS Final Energy:  -840.58751845433756
    Total Energy =                       -840.5875184543374417
  @DF-RKS Final Energy:  -840.59014037773761
    Total Energy =                       -840.5901403777374981
  @DF-RKS Final Energy:  -840.60600290705247
    Total Energy =                       -840.6060029070524706
  @DF-RKS Final Energy:  -840.61508153965349
    Total Energy =                       -840.6150815396536018
  @DF-RKS Final Energy:  -840.62089656016860
    Total Energy =                       -840.6208965601686032
  @DF-RKS Final Energy:  -840.62648940437066
    Total Energy =                       -840.6264894043707727
  @DF-RKS Final Energy:  -840.62377307879694
    Total Energy =                       -840.6237730787969440
  @DF-RKS Final Energy:  -840.62648936822916
    Total Energy =                       -840.6264893682290449
  @DF-RKS Final Energy:  -840.62884922677563
    Total Energy =                       -840.6288492267756283
  @DF-RKS Final Energy:  -840.62963848633797
    Total Energy =                       -840.6296384863378535
  @DF-RKS Final Energy:  -840.63011260824942
    Total Energy =                       -840.6301126082495330
  @DF-RKS Final Energy:  -840.63043490727546
    Total Energy =                       -840.6304349072753439
  @DF-RKS Final Energy:  -840.63052001259598
    Total Energy =                       -840.6305200125959800
  @DF-RKS Final Energy:  -840.63059335731589
    Total Energy =                       -840.6305933573158882
  @DF-RKS Final Energy:  -840.63063963061916
    Total Energy =                       -840.6306396306192710
  @DF-RKS Final Energy:  -840.63065371255936
    Total Energy =                       -840.6306537125594787
  @DF-RKS Final Energy:  -840.63025891591815
    Total Energy =                       -840.6302589159182617
  Basis Set: (6-311G AUX)
    Blend: CC-PVTZ-JKFIT
  Basis Set: 6-311G
    Blend: 6-311G
  Basis Set: (6-311G AUX)
    Blend: CC-PVTZ-JKFIT
  @DF-RKS Final Energy:  -840.63055119914111
    Total Energy =                       -840.6305511991411095
  Basis Set: 6-311G
    Blend: 6-311G
  Basis Set: (6-311G AUX)
    Blend: CC-PVTZ-JKFIT
  Charge       = 0
  Multiplicity = 1
  Basis Set: 6-311G
    Blend: 6-311G
  Basis Set: (6-311G AUX)
    Blend: CC-PVTZ-JKFIT

    Orbital Energies [Eh]
    ---------------------

    Doubly Occupied:

       1A    -19.211319     2A    -14.470379     3A    -14.463144
       4A    -10.390241     5A    -10.379384     6A    -10.344409
       7A    -10.326344     8A    -10.321579     9A    -10.304427
      10A    -10.303893    11A    -10.301596    12A    -10.301457
      13A    -10.300253    14A    -10.298884    15A    -10.298584
      16A    -10.297903    17A    -10.296858    18A    -10.296314
      19A    -10.294345    20A    -10.284996    21A     -1.144286
      22A     -1.070699    23A     -1.060685    24A     -0.981726
      25A     -0.968866    26A     -0.910687    27A     -0.877160
      28A     -0.864431    29A     -0.860156    30A     -0.859672
      31A     -0.819509    32A     -0.772379    33A     -0.730710
      34A     -0.725214    35A     -0.714722    36A     -0.696631
      37A     -0.688263    38A     -0.667367    39A     -0.640857
      40A     -0.617601    41A     -0.603995    42A     -0.587889
      43A     -0.582881    44A     -0.563820    45A     -0.557139
      46A     -0.540843    47A     -0.538014    48A     -0.531605
      49A     -0.529798    50A     -0.520968    51A     -0.518018
      52A     -0.505885    53A     -0.501206    54A     -0.487329
      55A     -0.480504    56A     -0.476827    57A     -0.451242
      58A     -0.448674    59A     -0.443778    60A     -0.432320
      61A     -0.431138    62A     -0.408438    63A     -0.364821
      64A     -0.347014    65A     -0.341546    66A     -0.336142
      67A     -0.332871    68A     -0.306156    69A     -0.257878

  @DF-RKS Final Energy:  -840.63065369529681

   => Energetics <=

    Nuclear Repulsion Energy =           1419.6186715989047116
    One-Electron Energy =               -3957.1412896561137131
    Two-Electron Energy =                1779.5888009990237606
    DFT Exchange-Correlation Energy =     -82.6731605933610183
    Empirical Dispersion Energy =          -0.0236760437506371
    VV10 Nonlocal Energy =                  0.0000000000000000
    Total Energy =                       -840.6306536952968145

  Dipole Moment: [D]
     X:    -1.2942      Y:     2.3423      Z:    -0.9892     Total:     2.8530

    Molecular point group: c1
  Basis Set: 6-311G
    Blend: 6-311G
  Basis Set: (6-311G AUX)
    Blend: CC-PVTZ-JKFIT

  -Total Gradient:
     Atom            X                  Y                   Z
    ------   -----------------  -----------------  -----------------
       1        0.013793573460     0.010610211056     0.015819357828
       2       -0.006561367184    -0.008312332557    -0.003727261529
       3       -0.003826209986     0.000957744366    -0.009591439047
       4        0.000996073997    -0.001017918440     0.002212061882
       5       -0.000093978549    -0.000438995976     0.000374104509
       6        0.000012573525     0.000085224280    -0.000014964924
       7       -0.003634639130    -0.001905896513    -0.005753087260
       8        0.000086837061    -0.000038543446     0.000013824674
       9       -0.000200072974    -0.000181746391    -0.000327769799
      10        0.000357168839    -0.000563109341    -0.000061764543
      11        0.000009801747     0.000000825956     0.000260380427
      12        0.005646167618     0.009068758462     0.013092348644
      13       -0.006387922340    -0.008645211374    -0.011857615160
      14       -0.000084978148     0.000028276072     0.000079680693
      15        0.000081421304    -0.000007749096    -0.000051900566
      16        0.000010129721     0.000042202571    -0.000017548346
      17       -0.000039049196     0.000006768723    -0.000003665617
      18        0.000089643563    -0.000019827484    -0.000071799358
      19       -0.000053446028     0.000032828330     0.000018787336
      20       -0.000014551897    -0.000056942516     0.000004409435
      21        0.000044870672     0.000018356910     0.000006214499
      22        0.000009960692    -0.000020751147     0.000022916695
      23        0.000001443026    -0.000033360310    -0.000005956759
      24       -0.000007474811     0.000244528124    -0.000258383922
      25        0.000154524013     0.000056488380    -0.000162087392
      26       -0.000086360657    -0.000007498868    -0.000009906627
      27        0.000026554613    -0.000030650323     0.000001307251
      28       -0.000068307507    -0.000027879913     0.000053564303
      29       -0.000006759587    -0.000029083990     0.000037274727
      30       -0.000004900913     0.000001709984     0.000009876542
      31       -0.000029935552    -0.000021378426     0.000015956361
      32       -0.000128269951     0.000160699531    -0.000157935073
      33       -0.000079448437     0.000038652954     0.000020460576
      34       -0.000025806367    -0.000005945804    -0.000010668737

  **** Optimization is complete! (in 1 steps) ****
    Final optimized geometry and variables:
    Molecular point group: c1

    Geometry (in Angstrom), charge = 0, multiplicity = 1:

    C           -0.553160717698    -0.053220343854     0.420667930896
    N            0.525555868451    -0.853128688400     0.146636222474
    C            1.832774242909    -0.547239771628    -0.302277553736
    C            2.495515576000    -1.499501254476    -1.080257932566
    H            0.440698142737    -1.802097577334     0.542315269851
    C            2.522137379038     0.594623421607     0.123791949971
    C           -1.563818351048    -0.689473117352     1.162295147140
    N           -2.481465435827    -2.369778256140     2.411656076138
    C           -2.925716954249    -0.338874491384     1.570784148770
    C           -1.343067266215    -2.033908346281     1.721973482340
    C           -3.430292104023    -1.350581169794     2.311997417499
    C           -0.763293666586     1.215923409059    -0.364199805518
    C           -1.953898333306     1.956205404480    -0.265796124724
    C            0.052138187035     1.518094519112    -1.474538202473
    C           -2.262268668298     2.991119591229    -1.141393344320
    C           -0.251378425727     2.551016258736    -2.354209414933
    C           -1.409713390516     3.302468480225    -2.193636637336
    C            3.813326520796    -1.284641896317    -1.475870757360
    C            3.831263137506     0.810985921112    -0.288873682688
    C            4.482911308420    -0.124910926733    -1.093270921690
    H            1.967932730162    -2.395002391190    -1.378996068801
    H            2.025852657268     1.305749635712     0.769408861228
    H           -2.588946292059    -3.250501761802     2.875352414858
    O           -0.345459720137    -2.809136675414     1.601046645685
    H           -2.623050732652     1.792689427294     0.553998715210
    H            0.925709165969     0.934934464234    -1.694242646006
    H           -3.179014428658     3.546352420033    -0.998759569011
    H            0.415145700809     2.746688327877    -3.182691629773
    H           -1.649152976208     4.102144755215    -2.880648320107
    H            4.313957483156    -2.026135604351    -2.083280479952
    H            4.350364802453     1.702678039277     0.035109913636
    H           -3.492335546521     0.540830414443     1.347259143157
    H           -4.394433060330    -1.440842879017     2.778339590146
    H            5.504332252728     0.042604304935    -1.405005812766

*** Psi4 exiting successfully. Buy a developer a beer!
