                               Psi4 1.5 release

  ==> Input File <==

--------------------------------------------------------------------------
molecule {
0 1
 C   -0.601660   -0.346931    0.282933
 N   -0.068361   -1.409485   -0.413011
 C    1.163660   -1.528883   -1.099732
 C    1.206899   -2.398992   -2.196694
 H   -0.643667   -2.234228   -0.445576
 C    2.334923   -0.882137   -0.695568
 C   -1.665361   -0.545265    1.115746
 N   -3.465825   -0.147043    2.443241
 C   -2.296417   -1.811999    1.488479
 C   -2.453935    0.527788    1.761314
 C   -3.354720   -1.530310    2.277385
 C   -0.001506    1.001500    0.083256
 C   -0.331584    1.734420   -1.056233
 C    0.789603    1.583673    1.073848
 C    0.165594    3.023044   -1.226357
 C    1.292561    2.867661    0.900174
 C    0.983638    3.588630   -0.252149
 C    2.395699   -2.608841   -2.885327
 C    3.516741   -1.083689   -1.403603
 C    3.557979   -1.945260   -2.496911
 H    0.299498   -2.895486   -2.517413
 H    2.331934   -0.232632    0.163276
 H   -4.162740    0.334438    2.976882
 O   -2.332418    1.765916    1.742580
 H   -0.978879    1.295741   -1.803474
 H    0.993425    1.033649    1.983166
 H   -0.095633    3.587139   -2.111123
 H    1.908114    3.312962    1.669695
 H    1.366401    4.591802   -0.381823
 H    2.409819   -3.283078   -3.730717
 H    4.413996   -0.571775   -1.083797
 H   -1.959801   -2.803618    1.238669
 H   -4.043156   -2.199242    2.762753
 H    4.482140   -2.101130   -3.035343
}
memory 8.166666666666666GB
set_num_threads(2)
psi4_io.set_default_path("/scratch/bdw2292/Psi4-1_16_Index_0-farH_in17")
set freeze_core True
E, wfn = energy('wb97x-d/6-311+G*',return_wfn=True)
oeprop(wfn,"WIBERG_LOWDIN_INDICES")
clean()
--------------------------------------------------------------------------

    Molecular point group: c1

    Geometry (in Angstrom), charge = 0, multiplicity = 1:

       Center              X                  Y                   Z               Mass
    ------------   -----------------  -----------------  -----------------  -----------------
         C           -0.601659960655    -0.346931015614     0.282932913742    12.000000000000
         N           -0.068360960655    -1.409485015614    -0.413011086258    14.003074004430
         C            1.163660039345    -1.528883015614    -1.099732086258    12.000000000000
         C            1.206899039345    -2.398992015614    -2.196694086258    12.000000000000
         H           -0.643666960655    -2.234228015614    -0.445576086258     1.007825032230
         C            2.334923039345    -0.882137015614    -0.695568086258    12.000000000000
         C           -1.665360960655    -0.545265015614     1.115745913742    12.000000000000
         N           -3.465824960655    -0.147043015614     2.443240913742    14.003074004430
         C           -2.296416960655    -1.811999015614     1.488478913742    12.000000000000
         C           -2.453934960655     0.527787984386     1.761313913742    12.000000000000
         C           -3.354719960655    -1.530310015614     2.277384913742    12.000000000000
         C           -0.001505960655     1.001499984386     0.083255913742    12.000000000000
         C           -0.331583960655     1.734419984386    -1.056233086258    12.000000000000
         C            0.789603039345     1.583672984386     1.073847913742    12.000000000000
         C            0.165594039345     3.023043984386    -1.226357086258    12.000000000000
         C            1.292561039345     2.867660984386     0.900173913742    12.000000000000
         C            0.983638039345     3.588629984386    -0.252149086258    12.000000000000
         C            2.395699039345    -2.608841015614    -2.885327086258    12.000000000000
         C            3.516741039345    -1.083689015614    -1.403603086258    12.000000000000
         C            3.557979039345    -1.945260015614    -2.496911086258    12.000000000000
         H            0.299498039345    -2.895486015614    -2.517413086258     1.007825032230
         H            2.331934039345    -0.232632015614     0.163275913742     1.007825032230
         H           -4.162739960655     0.334437984386     2.976881913742     1.007825032230
         O           -2.332417960655     1.765915984386     1.742579913742    15.994914619570
         H           -0.978878960655     1.295740984386    -1.803474086258     1.007825032230
         H            0.993425039345     1.033648984386     1.983165913742     1.007825032230
         H           -0.095632960655     3.587138984386    -2.111123086258     1.007825032230
         H            1.908114039345     3.312961984386     1.669694913742     1.007825032230
         H            1.366401039345     4.591801984386    -0.381823086258     1.007825032230
         H            2.409819039345    -3.283078015614    -3.730717086258     1.007825032230
         H            4.413996039345    -0.571775015614    -1.083797086258     1.007825032230
         H           -1.959800960655    -2.803618015614     1.238668913742     1.007825032230
         H           -4.043155960655    -2.199242015614     2.762752913742     1.007825032230
         H            4.482140039345    -2.101130015614    -3.035343086258     1.007825032230

  Charge       = 0
  Multiplicity = 1
  Basis Set: 6-311+G*
    Blend: 6-311+G*
  Basis Set: (6-311+G* AUX)
    Blend: HEAVY-AUG-CC-PVTZ-JKFIT

    Orbital Energies [Eh]
    ---------------------

    Doubly Occupied:

       1A    -19.196679     2A    -14.483015     3A    -14.461383
       4A    -10.378885     5A    -10.362693     6A    -10.346834
       7A    -10.325671     8A    -10.303275     9A    -10.299220
      10A    -10.298593    11A    -10.297144    12A    -10.294307
      13A    -10.292273    14A    -10.290808    15A    -10.290213
      16A    -10.288875    17A    -10.288452    18A    -10.288002
      19A    -10.287754    20A    -10.283184    21A     -1.119302
      22A     -1.077573    23A     -1.046162    24A     -0.971654
      25A     -0.960590    26A     -0.908860    27A     -0.869124
      28A     -0.858938    29A     -0.851204    30A     -0.849234
      31A     -0.815854    32A     -0.767737    33A     -0.727385
      34A     -0.716478    35A     -0.705653    36A     -0.694130
      37A     -0.682260    38A     -0.662275    39A     -0.640015
      40A     -0.615929    41A     -0.599701    42A     -0.590831
      43A     -0.565158    44A     -0.554715    45A     -0.548211
      46A     -0.542771    47A     -0.529609    48A     -0.521887
      49A     -0.519204    50A     -0.518133    51A     -0.516391
      52A     -0.509952    53A     -0.492677    54A     -0.487284
      55A     -0.479671    56A     -0.458027    57A     -0.451645
      58A     -0.448180    59A     -0.434994    60A     -0.430243
      61A     -0.425865    62A     -0.404332    63A     -0.362805
      64A     -0.343106    65A     -0.336652    66A     -0.329050
      67A     -0.319879    68A     -0.310082    69A     -0.260212

  @DF-RKS Final Energy:  -840.85510319654338

   => Energetics <=

    Nuclear Repulsion Energy =           1424.6642660342824911
    One-Electron Energy =               -3968.4714807555569678
    Two-Electron Energy =                1785.6536950378449546
    DFT Exchange-Correlation Energy =     -82.6772158008633653
    Empirical Dispersion Energy =          -0.0243677122508605
    VV10 Nonlocal Energy =                  0.0000000000000000
    Total Energy =                       -840.8551031965434959

  Dipole Moment: [D]
     X:     0.6271      Y:    -3.2325      Z:    -0.9018     Total:     3.4140

*** Psi4 exiting successfully. Buy a developer a beer!
