                               Psi4 1.5 release

  ==> Input File <==

--------------------------------------------------------------------------
molecule {
0 1
 C   -0.553160   -0.143952    0.425008
 N    0.690389   -0.642607    0.675404
 C    1.907797   -0.390923   -0.000370
 C    2.187180    0.815460   -0.649704
 H    0.758540   -1.137587    1.568865
 C    2.882088   -1.394598    0.034849
 C   -1.532431   -0.282865    1.384264
 N   -2.480191   -0.874951    3.350400
 C   -2.949410    0.054533    1.352955
 C   -1.274767   -0.899513    2.682984
 C   -3.481190   -0.305656    2.542857
 C   -0.852508    0.461066   -0.897551
 C   -1.458781    1.717589   -0.983477
 C   -0.548081   -0.237581   -2.071011
 C   -1.752043    2.270667   -2.227627
 C   -0.849138    0.313507   -3.311431
 C   -1.448523    1.569969   -3.392965
 C    3.417046    0.995994   -1.276026
 C    4.114856   -1.198239   -0.577459
 C    4.386029   -0.004682   -1.244334
 H    1.457744    1.610658   -0.658660
 H    2.661780   -2.325294    0.540840
 H   -2.600186   -1.246034    4.272737
 O   -0.197163   -1.388269    3.127475
 H   -1.685131    2.261386   -0.076329
 H   -0.075084   -1.207904   -2.006290
 H   -2.214651    3.246508   -2.285489
 H   -0.615255   -0.235482   -4.213131
 H   -1.677810    1.999072   -4.358815
 H    3.620888    1.931983   -1.778161
 H    4.860129   -1.980893   -0.537562
 H   -3.479813    0.497048    0.528833
 H   -4.490591   -0.218949    2.902382
 H    5.341646    0.145776   -1.726815
}
memory 8.166666666666666GB
set_num_threads(2)
psi4_io.set_default_path("/scratch/bdw2292/Psi4-1_16_Index_0-farH_in17")
set freeze_core True
E, wfn = energy('wb97x-d/6-311+G*',return_wfn=True)
oeprop(wfn,"WIBERG_LOWDIN_INDICES")
clean()
--------------------------------------------------------------------------

    Molecular point group: c1

    Geometry (in Angstrom), charge = 0, multiplicity = 1:

       Center              X                  Y                   Z               Mass
    ------------   -----------------  -----------------  -----------------  -----------------
         C           -0.553160040485    -0.143952063932     0.425007905551    12.000000000000
         N            0.690388959515    -0.642607063932     0.675403905551    14.003074004430
         C            1.907796959515    -0.390923063932    -0.000370094449    12.000000000000
         C            2.187179959515     0.815459936068    -0.649704094449    12.000000000000
         H            0.758539959515    -1.137587063932     1.568864905551     1.007825032230
         C            2.882087959515    -1.394598063932     0.034848905551    12.000000000000
         C           -1.532431040485    -0.282865063932     1.384263905551    12.000000000000
         N           -2.480191040485    -0.874951063932     3.350399905551    14.003074004430
         C           -2.949410040485     0.054532936068     1.352954905551    12.000000000000
         C           -1.274767040485    -0.899513063932     2.682983905551    12.000000000000
         C           -3.481190040485    -0.305656063932     2.542856905551    12.000000000000
         C           -0.852508040485     0.461065936068    -0.897551094449    12.000000000000
         C           -1.458781040485     1.717588936068    -0.983477094449    12.000000000000
         C           -0.548081040485    -0.237581063932    -2.071011094449    12.000000000000
         C           -1.752043040485     2.270666936068    -2.227627094449    12.000000000000
         C           -0.849138040485     0.313506936068    -3.311431094449    12.000000000000
         C           -1.448523040485     1.569968936068    -3.392965094449    12.000000000000
         C            3.417045959515     0.995993936068    -1.276026094449    12.000000000000
         C            4.114855959515    -1.198239063932    -0.577459094449    12.000000000000
         C            4.386028959515    -0.004682063932    -1.244334094449    12.000000000000
         H            1.457743959515     1.610657936068    -0.658660094449     1.007825032230
         H            2.661779959515    -2.325294063932     0.540839905551     1.007825032230
         H           -2.600186040485    -1.246034063932     4.272736905551     1.007825032230
         O           -0.197163040485    -1.388269063932     3.127474905551    15.994914619570
         H           -1.685131040485     2.261385936068    -0.076329094449     1.007825032230
         H           -0.075084040485    -1.207904063932    -2.006290094449     1.007825032230
         H           -2.214651040485     3.246507936068    -2.285489094449     1.007825032230
         H           -0.615255040485    -0.235482063932    -4.213131094449     1.007825032230
         H           -1.677810040485     1.999071936068    -4.358815094449     1.007825032230
         H            3.620887959515     1.931982936068    -1.778161094449     1.007825032230
         H            4.860128959515    -1.980893063932    -0.537562094449     1.007825032230
         H           -3.479813040485     0.497047936068     0.528832905551     1.007825032230
         H           -4.490591040485    -0.218949063932     2.902381905551     1.007825032230
         H            5.341645959515     0.145775936068    -1.726815094449     1.007825032230

  Charge       = 0
  Multiplicity = 1
  Basis Set: 6-311+G*
    Blend: 6-311+G*
  Basis Set: (6-311+G* AUX)
    Blend: HEAVY-AUG-CC-PVTZ-JKFIT

    Orbital Energies [Eh]
    ---------------------

    Doubly Occupied:

       1A    -19.207034     2A    -14.469869     3A    -14.466147
       4A    -10.379592     5A    -10.365172     6A    -10.340305
       7A    -10.318035     8A    -10.317116     9A    -10.305318
      10A    -10.304621    11A    -10.304286    12A    -10.303555
      13A    -10.302637    14A    -10.294784    15A    -10.294579
      16A    -10.292850    17A    -10.292509    18A    -10.289739
      19A    -10.284762    20A    -10.280157    21A     -1.124860
      22A     -1.070277    23A     -1.049556    24A     -0.980134
      25A     -0.962127    26A     -0.909911    27A     -0.873216
      28A     -0.863952    29A     -0.855345    30A     -0.853547
      31A     -0.813846    32A     -0.769102    33A     -0.726110
      34A     -0.722201    35A     -0.713694    36A     -0.695437
      37A     -0.680294    38A     -0.664766    39A     -0.636938
      40A     -0.617499    41A     -0.599579    42A     -0.582557
      43A     -0.582176    44A     -0.562573    45A     -0.554108
      46A     -0.540662    47A     -0.533661    48A     -0.526435
      49A     -0.521697    50A     -0.516356    51A     -0.514398
      52A     -0.510865    53A     -0.498500    54A     -0.482945
      55A     -0.479536    56A     -0.474535    57A     -0.450774
      58A     -0.448841    59A     -0.444742    60A     -0.439385
      61A     -0.429454    62A     -0.406509    63A     -0.366339
      64A     -0.347078    65A     -0.343333    66A     -0.337956
      67A     -0.332096    68A     -0.308771    69A     -0.259849

  @DF-RKS Final Energy:  -840.87267416164707

   => Energetics <=

    Nuclear Repulsion Energy =           1426.1302259531871641
    One-Electron Energy =               -3971.0271115088225997
    Two-Electron Energy =                1786.7350120068679189
    DFT Exchange-Correlation Energy =     -82.6863820297795087
    Empirical Dispersion Energy =          -0.0244185831000461
    VV10 Nonlocal Energy =                  0.0000000000000000
    Total Energy =                       -840.8726741616470690

  Dipole Moment: [D]
     X:    -1.4311      Y:     1.4188      Z:    -2.6464     Total:     3.3263

*** Psi4 exiting successfully. Buy a developer a beer!
