                               Psi4 1.5 release

  ==> Input File <==

--------------------------------------------------------------------------
molecule {
0 1
 C   -0.606035   -0.308247    0.245064
 N    0.508033   -1.084054    0.155947
 C    1.789340   -0.687408   -0.346461
 C    2.719967   -0.124586    0.526582
 H    0.452408   -1.957364    0.687359
 C    2.158581   -0.980674   -1.658603
 C   -1.661441   -0.743740    1.021930
 N   -2.807216   -2.065173    2.451757
 C   -2.993845   -0.188415    1.221636
 C   -1.589784   -1.965362    1.812672
 C   -3.646712   -0.996941    2.086846
 C   -0.663748    0.991365   -0.473828
 C   -1.055305    2.142126    0.221639
 C   -0.407041    1.083437   -1.846116
 C   -1.154076    3.365458   -0.434947
 C   -0.512484    2.306138   -2.502351
 C   -0.880605    3.450830   -1.798399
 C    3.996518    0.197662    0.071676
 C    3.435198   -0.659446   -2.112095
 C    4.353827   -0.063584   -1.249557
 H    2.430752    0.062646    1.551480
 H    1.448344   -1.472457   -2.308434
 H   -3.039026   -2.820263    3.067106
 O   -0.632711   -2.787627    1.921070
 H   -1.260945    2.074528    1.280856
 H   -0.146188    0.197552   -2.404166
 H   -1.443597    4.249024    0.117466
 H   -0.312701    2.363283   -3.563638
 H   -0.958253    4.400728   -2.309871
 H    4.711317    0.644796    0.748855
 H    3.715386   -0.884054   -3.132186
 H   -3.392877    0.693805    0.753540
 H   -4.645470   -0.926721    2.478490
 H    5.345647    0.184534   -1.602070
}
memory 8.166666666666666GB
set_num_threads(2)
psi4_io.set_default_path("/scratch/bdw2292/Psi4-1_16_Index_0-farH_in17")
set freeze_core True
E, wfn = energy('wb97x-d/6-311+G*',return_wfn=True)
oeprop(wfn,"WIBERG_LOWDIN_INDICES")
clean()
--------------------------------------------------------------------------

    Molecular point group: c1

    Geometry (in Angstrom), charge = 0, multiplicity = 1:

       Center              X                  Y                   Z               Mass
    ------------   -----------------  -----------------  -----------------  -----------------
         C           -0.606034996214    -0.308246874729     0.245064018959    12.000000000000
         N            0.508033003786    -1.084053874729     0.155947018959    14.003074004430
         C            1.789340003786    -0.687407874729    -0.346460981041    12.000000000000
         C            2.719967003786    -0.124585874729     0.526582018959    12.000000000000
         H            0.452408003786    -1.957363874729     0.687359018959     1.007825032230
         C            2.158581003786    -0.980673874729    -1.658602981041    12.000000000000
         C           -1.661440996214    -0.743739874729     1.021930018959    12.000000000000
         N           -2.807215996214    -2.065172874729     2.451757018959    14.003074004430
         C           -2.993844996214    -0.188414874729     1.221636018959    12.000000000000
         C           -1.589783996214    -1.965361874729     1.812672018959    12.000000000000
         C           -3.646711996214    -0.996940874729     2.086846018959    12.000000000000
         C           -0.663747996214     0.991365125271    -0.473827981041    12.000000000000
         C           -1.055304996214     2.142126125271     0.221639018959    12.000000000000
         C           -0.407040996214     1.083437125271    -1.846115981041    12.000000000000
         C           -1.154075996214     3.365458125271    -0.434946981041    12.000000000000
         C           -0.512483996214     2.306138125271    -2.502350981041    12.000000000000
         C           -0.880604996214     3.450830125271    -1.798398981041    12.000000000000
         C            3.996518003786     0.197662125271     0.071676018959    12.000000000000
         C            3.435198003786    -0.659445874729    -2.112094981041    12.000000000000
         C            4.353827003786    -0.063583874729    -1.249556981041    12.000000000000
         H            2.430752003786     0.062646125271     1.551480018959     1.007825032230
         H            1.448344003786    -1.472456874729    -2.308433981041     1.007825032230
         H           -3.039025996214    -2.820262874729     3.067106018959     1.007825032230
         O           -0.632710996214    -2.787626874729     1.921070018959    15.994914619570
         H           -1.260944996214     2.074528125271     1.280856018959     1.007825032230
         H           -0.146187996214     0.197552125271    -2.404165981041     1.007825032230
         H           -1.443596996214     4.249024125271     0.117466018959     1.007825032230
         H           -0.312700996214     2.363283125271    -3.563637981041     1.007825032230
         H           -0.958252996214     4.400728125271    -2.309870981041     1.007825032230
         H            4.711317003786     0.644796125271     0.748855018959     1.007825032230
         H            3.715386003786    -0.884053874729    -3.132185981041     1.007825032230
         H           -3.392876996214     0.693805125271     0.753540018959     1.007825032230
         H           -4.645469996214    -0.926720874729     2.478490018959     1.007825032230
         H            5.345647003786     0.184534125271    -1.602069981041     1.007825032230

  Charge       = 0
  Multiplicity = 1
  Basis Set: 6-311+G*
    Blend: 6-311+G*
  Basis Set: (6-311+G* AUX)
    Blend: HEAVY-AUG-CC-PVTZ-JKFIT

    Orbital Energies [Eh]
    ---------------------

    Doubly Occupied:

       1A    -19.201077     2A    -14.462567     3A    -14.461517
       4A    -10.373577     5A    -10.363016     6A    -10.338243
       7A    -10.315018     8A    -10.312575     9A    -10.303546
      10A    -10.302202    11A    -10.301743    12A    -10.300646
      13A    -10.300380    14A    -10.300183    15A    -10.300051
      16A    -10.299756    17A    -10.299029    18A    -10.298610
      19A    -10.277827    20A    -10.275984    21A     -1.118619
      22A     -1.063860    23A     -1.043924    24A     -0.978022
      25A     -0.965511    26A     -0.905932    27A     -0.868932
      28A     -0.862084    29A     -0.860046    30A     -0.854282
      31A     -0.811180    32A     -0.764305    33A     -0.723196
      34A     -0.721683    35A     -0.714619    36A     -0.692971
      37A     -0.677709    38A     -0.666313    39A     -0.637420
      40A     -0.616780    41A     -0.596564    42A     -0.582955
      43A     -0.577501    44A     -0.564203    45A     -0.555550
      46A     -0.545816    47A     -0.538445    48A     -0.524773
      49A     -0.519724    50A     -0.516991    51A     -0.511181
      52A     -0.507002    53A     -0.493708    54A     -0.478564
      55A     -0.472865    56A     -0.466618    57A     -0.454324
      58A     -0.452379    59A     -0.443099    60A     -0.439633
      61A     -0.423964    62A     -0.401088    63A     -0.350616
      64A     -0.344772    65A     -0.342971    66A     -0.339191
      67A     -0.327732    68A     -0.324184    69A     -0.258847

  @DF-RKS Final Energy:  -840.86701461876305

   => Energetics <=

    Nuclear Repulsion Energy =           1424.0905687911219957
    One-Electron Energy =               -3967.1434847575092135
    Two-Electron Energy =                1784.8904928765389286
    DFT Exchange-Correlation Energy =     -82.6804903093689347
    Empirical Dispersion Energy =          -0.0241012195455799
    VV10 Nonlocal Energy =                  0.0000000000000000
    Total Energy =                       -840.8670146187630507

  Dipole Moment: [D]
     X:    -0.0224      Y:     3.0997      Z:    -1.5979     Total:     3.4874

*** Psi4 exiting successfully. Buy a developer a beer!
