                               Psi4 1.5 release

  ==> Input File <==

--------------------------------------------------------------------------
molecule {
0 1
 C   -0.533979   -0.034586    0.401670
 N    0.761127   -0.482759    0.657921
 C    2.037747   -0.218734    0.085657
 C    2.262685    0.663740   -1.004446
 H    0.820615   -0.928061    1.593833
 C    3.151994   -0.929312    0.615549
 C   -1.527240   -0.265894    1.367309
 N   -2.470563   -0.881106    3.348761
 C   -2.957609   -0.059835    1.306849
 C   -1.255745   -0.827580    2.710583
 C   -3.486247   -0.427495    2.505732
 C   -0.889962    0.560859   -0.915175
 C   -1.571406    1.802835   -0.986717
 C   -0.662225   -0.165357   -2.113883
 C   -1.973053    2.321747   -2.224397
 C   -1.064233    0.359910   -3.348730
 C   -1.719045    1.606678   -3.412542
 C    3.548629    0.820987   -1.541958
 C    4.432652   -0.762260    0.072462
 C    4.642714    0.111333   -1.011045
 H    1.453353    1.249679   -1.434376
 H    3.014726   -1.616859    1.454106
 H   -2.568622   -1.219837    4.294756
 O   -0.156030   -1.199295    3.194252
 H   -1.776654    2.357093   -0.068784
 H   -0.170244   -1.138928   -2.068132
 H   -2.484505    3.284973   -2.266300
 H   -0.868769   -0.200877   -4.264309
 H   -2.031201    2.014004   -4.375907
 H    3.695789    1.504380   -2.380286
 H    5.269752   -1.319255    0.496605
 H   -3.520749    0.319899    0.465551
 H   -4.511835   -0.412522    2.847326
 H    5.641293    0.237779   -1.433046
}
set optking {
  frozen_dihedral = ("
    1 2 3 4
    2 1 12 13
    7 1 2 3
  ")
}
set {
  geom_maxiter 400
  g_convergence GAU_LOOSE
  dynamic_level 1
}
memory 8.166666666666666GB
set_num_threads(2)
psi4_io.set_default_path("/scratch/bdw2292/Psi4-1_16_Index_0-farH_in17")
for _ in range(1):
  try:
    set opt_coordinates both
    optimize('wb97x-d/6-311G')
    break
  except OptimizationConvergenceError:
    break
  else:
    try:
      set opt_coordinates cartesian
      optimize('wb97x-d/6-311G')
      break
    except OptimizationConvergenceError:
      pass
clean()
--------------------------------------------------------------------------

    Molecular point group: c1
  Charge       = 0
  Multiplicity = 1
  Basis Set: 6-311G
    Blend: 6-311G
  Basis Set: (6-311G AUX)
    Blend: CC-PVTZ-JKFIT
  @DF-RKS Final Energy:  -840.64627644937366
    Total Energy =                       -840.6462764493735449
    Molecular point group: c1
  Basis Set: 6-311G
    Blend: 6-311G
  Basis Set: (6-311G AUX)
    Blend: CC-PVTZ-JKFIT
  Basis Set: 6-311G
    Blend: 6-311G
  Basis Set: (6-311G AUX)
    Blend: CC-PVTZ-JKFIT
  @DF-RKS Final Energy:  -840.65280451113404
    Total Energy =                       -840.6528045111340361
  Basis Set: 6-311G
    Blend: 6-311G
  Basis Set: (6-311G AUX)
    Blend: CC-PVTZ-JKFIT
  Basis Set: 6-311G
    Blend: 6-311G
  @DF-RKS Final Energy:  -840.65314695113705
    Total Energy =                       -840.6531469511370460
  @DF-RKS Final Energy:  -840.65313176962979
    Total Energy =                       -840.6531317696299084
  @DF-RKS Final Energy:  -840.65326417224833
    Total Energy =                       -840.6532641722483277
  Basis Set: (6-311G AUX)
    Blend: CC-PVTZ-JKFIT
  Basis Set: 6-311G
    Blend: 6-311G
  Basis Set: (6-311G AUX)
    Blend: CC-PVTZ-JKFIT
  @DF-RKS Final Energy:  -840.65327354332226
    Total Energy =                       -840.6532735433221433
  Basis Set: 6-311G
    Blend: 6-311G
  Basis Set: (6-311G AUX)
    Blend: CC-PVTZ-JKFIT
  Charge       = 0
  Multiplicity = 1
  Basis Set: 6-311G
    Blend: 6-311G
  Basis Set: (6-311G AUX)
    Blend: CC-PVTZ-JKFIT

    Orbital Energies [Eh]
    ---------------------

    Doubly Occupied:

       1A    -19.209013     2A    -14.474851     3A    -14.468976
       4A    -10.389421     5A    -10.371637     6A    -10.347611
       7A    -10.322695     8A    -10.321041     9A    -10.308950
      10A    -10.308144    11A    -10.307715    12A    -10.307025
      13A    -10.306408    14A    -10.294614    15A    -10.294508
      16A    -10.292802    17A    -10.292017    18A    -10.291602
      19A    -10.288219    20A    -10.282933    21A     -1.140078
      22A     -1.075759    23A     -1.059174    24A     -0.987086
      25A     -0.966399    26A     -0.915683    27A     -0.878607
      28A     -0.869099    29A     -0.858498    30A     -0.856602
      31A     -0.818767    32A     -0.774816    33A     -0.730669
      34A     -0.727950    35A     -0.715603    36A     -0.699059
      37A     -0.683561    38A     -0.666628    39A     -0.641977
      40A     -0.619013    41A     -0.601730    42A     -0.586776
      43A     -0.583781    44A     -0.567358    45A     -0.556212
      46A     -0.538845    47A     -0.534865    48A     -0.531866
      49A     -0.526266    50A     -0.518685    51A     -0.516326
      52A     -0.512967    53A     -0.498968    54A     -0.495071
      55A     -0.480757    56A     -0.476099    57A     -0.450993
      58A     -0.449978    59A     -0.445317    60A     -0.436244
      61A     -0.431298    62A     -0.406436    63A     -0.368692
      64A     -0.349909    65A     -0.341677    66A     -0.335510
      67A     -0.332664    68A     -0.305873    69A     -0.256143

  @DF-RKS Final Energy:  -840.65327587647323

   => Energetics <=

    Nuclear Repulsion Energy =           1420.8560295808176761
    One-Electron Energy =               -3959.6266850584506756
    Two-Electron Energy =                1780.8178618163767624
    DFT Exchange-Correlation Energy =     -82.6762861917780185
    Empirical Dispersion Energy =          -0.0241960234388125
    VV10 Nonlocal Energy =                  0.0000000000000000
    Total Energy =                       -840.6532758764732307

  Dipole Moment: [D]
     X:    -1.7354      Y:     1.2646      Z:    -2.5552     Total:     3.3377

    Molecular point group: c1
  Basis Set: 6-311G
    Blend: 6-311G
  Basis Set: (6-311G AUX)
    Blend: CC-PVTZ-JKFIT

  -Total Gradient:
     Atom            X                  Y                   Z
    ------   -----------------  -----------------  -----------------
       1        0.000865092458     0.007226374871     0.003825644057
       2       -0.001199534429    -0.006092643370    -0.003813400666
       3        0.000783348440     0.004356237997     0.003499403194
       4       -0.000634923531    -0.002923653445    -0.002210512464
       5       -0.000023042190    -0.000085407608     0.000099990385
       6       -0.000023443344     0.000041051537    -0.000105523860
       7       -0.000631497557    -0.002190779333    -0.001002701647
       8       -0.000082640926    -0.000224949913    -0.000285261452
       9       -0.000052361933    -0.000134274740    -0.000119836694
      10        0.000458253525     0.000161475684     0.000338800910
      11        0.000071256252     0.000273833387     0.000209207796
      12        0.002454817239     0.000599291047    -0.000343195556
      13       -0.001786248051    -0.000997884822    -0.000025020691
      14        0.000056819544     0.000039197584     0.000024515609
      15        0.000045899735    -0.000070219151     0.000026217506
      16       -0.000023965013     0.000010081323     0.000075625894
      17        0.000021641481    -0.000001180814     0.000043122476
      18        0.000035694635    -0.000042028068     0.000037605359
      19       -0.000043130091     0.000028239114     0.000005452895
      20       -0.000032232173     0.000026161114     0.000016062124
      21        0.000037657689     0.000043924556    -0.000025416730
      22        0.000000565360    -0.000005939462     0.000002170329
      23       -0.000016558635    -0.000059865439    -0.000036234454
      24       -0.000185729304     0.000008609831    -0.000099038087
      25       -0.000038881819    -0.000015270810     0.000023429676
      26       -0.000020939784    -0.000004147749    -0.000001551049
      27       -0.000021468254     0.000007523786     0.000006755636
      28        0.000006197811     0.000007877446    -0.000022544246
      29       -0.000010898769     0.000003159637    -0.000001377468
      30       -0.000006168189     0.000008906854    -0.000008779373
      31        0.000023579146     0.000011838558    -0.000002602777
      32       -0.000019051235    -0.000049291935    -0.000047248733
      33       -0.000022436763    -0.000008264315     0.000012419663
      34        0.000019903796    -0.000004051537    -0.000007583578

  **** Optimization is complete! (in 7 steps) ****
    Final optimized geometry and variables:
    Molecular point group: c1

    Geometry (in Angstrom), charge = 0, multiplicity = 1:

    C           -0.553516360183    -0.080629676592     0.357896004085
    N            0.689037415816    -0.546260588947     0.676075008203
    C            1.966834204249    -0.290725660738     0.131056042460
    C            2.237505983509     0.562360271518    -0.945379405088
    H            0.704643306899    -1.009185783481     1.590089280055
    C            3.031706227622    -0.979777533177     0.733075483988
    C           -1.577937496340    -0.269488158217     1.260826528284
    N           -2.612333749020    -0.879366656615     3.177365690830
    C           -3.003901197552     0.004591107572     1.143376982220
    C           -1.370530548451    -0.856950235698     2.582795980841
    C           -3.588268228917    -0.363679322223     2.305224046056
    C           -0.849114600668     0.455039843846    -0.995208084458
    C           -1.477069743274     1.693085401454    -1.148569390045
    C           -0.577814956303    -0.325162065394    -2.125548143503
    C           -1.804249506989     2.160353034039    -2.419942986049
    C           -0.912543826242     0.139812804287    -3.391799712191
    C           -1.522204881349     1.385808426214    -3.542349304143
    C            3.545874831050     0.708637173623    -1.402475906324
    C            4.331043299503    -0.822772846596     0.270888232817
    C            4.598187940568     0.019906009121    -0.807259169289
    H            1.454385849757     1.131721699914    -1.415233045490
    H            2.828647216001    -1.638936876735     1.567437296811
    H           -2.770663642199    -1.243734597629     4.096529796121
    O           -0.299747592650    -1.290409377813     3.097396939633
    H           -1.693050331421     2.290026810212    -0.273037533616
    H           -0.099634488011    -1.287621993346    -2.004337560445
    H           -2.279303475843     3.125327044121    -2.531539567068
    H           -0.700673354263    -0.468104766358    -4.260505475112
    H           -1.778835015490     1.747175348141    -4.528733613212
    H            3.736416804932     1.375335365430    -2.232713608185
    H            5.134989412263    -1.362160647329     0.752858020512
    H           -3.503075844732     0.413971017882     0.283573653149
    H           -4.619858025029    -0.318881415357     2.604103409368
    H            5.608668586301     0.140659472448    -1.171524343464

*** Psi4 exiting successfully. Buy a developer a beer!
