                               Psi4 1.5 release

  ==> Input File <==

--------------------------------------------------------------------------
molecule {
0 1
 C   -0.525868   -0.206939    0.293964
 N    0.576986   -0.997865    0.167133
 C    1.861160   -0.704302   -0.382118
 C    2.949628   -0.798845    0.494406
 H    0.543180   -1.819555    0.780345
 C    2.095138   -0.422311   -1.727485
 C   -1.539661   -0.630376    1.131825
 N   -2.596620   -1.885909    2.686213
 C   -2.863832   -0.074921    1.375592
 C   -1.412066   -1.803957    1.988008
 C   -3.465791   -0.846052    2.309281
 C   -0.721025    1.015295   -0.531496
 C   -1.042644    2.223641    0.097780
 C   -0.810334    0.939106   -1.925493
 C   -1.352918    3.353042   -0.653987
 C   -1.128108    2.065738   -2.677651
 C   -1.386988    3.279390   -2.044632
 C    4.245574   -0.587891    0.038454
 C    3.394684   -0.194632   -2.176877
 C    4.472879   -0.274209   -1.300675
 H    2.762551   -1.033910    1.533664
 H    1.281393   -0.399361   -2.430130
 H   -2.789657   -2.610627    3.349929
 O   -0.440185   -2.610550    2.090559
 H   -1.029007    2.275761    1.177810
 H   -0.678683   -0.013765   -2.416842
 H   -1.576443    4.285316   -0.153843
 H   -1.190959    1.990645   -3.754674
 H   -1.631432    4.155553   -2.629434
 H    5.074284   -0.663726    0.728942
 H    3.560813    0.028331   -3.222029
 H   -3.291875    0.782862    0.888109
 H   -4.445342   -0.766722    2.744887
 H    5.478853   -0.102699   -1.657817
}
memory 8.166666666666666GB
set_num_threads(2)
psi4_io.set_default_path("/scratch/bdw2292/Psi4-1_16_Index_0-farH_in17")
set freeze_core True
E, wfn = energy('wb97x-d/6-311+G*',return_wfn=True)
oeprop(wfn,"WIBERG_LOWDIN_INDICES")
clean()
--------------------------------------------------------------------------

    Molecular point group: c1

    Geometry (in Angstrom), charge = 0, multiplicity = 1:

       Center              X                  Y                   Z               Mass
    ------------   -----------------  -----------------  -----------------  -----------------
         C           -0.525867945732    -0.206938992403     0.293964023758    12.000000000000
         N            0.576986054268    -0.997864992403     0.167133023758    14.003074004430
         C            1.861160054268    -0.704301992403    -0.382117976242    12.000000000000
         C            2.949628054268    -0.798844992403     0.494406023758    12.000000000000
         H            0.543180054268    -1.819554992403     0.780345023758     1.007825032230
         C            2.095138054268    -0.422310992403    -1.727484976242    12.000000000000
         C           -1.539660945732    -0.630375992403     1.131825023758    12.000000000000
         N           -2.596619945732    -1.885908992403     2.686213023758    14.003074004430
         C           -2.863831945732    -0.074920992403     1.375592023758    12.000000000000
         C           -1.412065945732    -1.803956992403     1.988008023758    12.000000000000
         C           -3.465790945732    -0.846051992403     2.309281023758    12.000000000000
         C           -0.721024945732     1.015295007597    -0.531495976242    12.000000000000
         C           -1.042643945732     2.223641007597     0.097780023758    12.000000000000
         C           -0.810333945732     0.939106007597    -1.925492976242    12.000000000000
         C           -1.352917945732     3.353042007597    -0.653986976242    12.000000000000
         C           -1.128107945732     2.065738007597    -2.677650976242    12.000000000000
         C           -1.386987945732     3.279390007597    -2.044631976242    12.000000000000
         C            4.245574054268    -0.587890992403     0.038454023758    12.000000000000
         C            3.394684054268    -0.194631992403    -2.176876976242    12.000000000000
         C            4.472879054268    -0.274208992403    -1.300674976242    12.000000000000
         H            2.762551054268    -1.033909992403     1.533664023758     1.007825032230
         H            1.281393054268    -0.399360992403    -2.430129976242     1.007825032230
         H           -2.789656945732    -2.610626992403     3.349929023758     1.007825032230
         O           -0.440184945732    -2.610549992403     2.090559023758    15.994914619570
         H           -1.029006945732     2.275761007597     1.177810023758     1.007825032230
         H           -0.678682945732    -0.013764992403    -2.416841976242     1.007825032230
         H           -1.576442945732     4.285316007597    -0.153842976242     1.007825032230
         H           -1.190958945732     1.990645007597    -3.754673976242     1.007825032230
         H           -1.631431945732     4.155553007597    -2.629433976242     1.007825032230
         H            5.074284054268    -0.663725992403     0.728942023758     1.007825032230
         H            3.560813054268     0.028331007597    -3.222028976242     1.007825032230
         H           -3.291874945732     0.782862007597     0.888109023758     1.007825032230
         H           -4.445341945732    -0.766721992403     2.744887023758     1.007825032230
         H            5.478853054268    -0.102698992403    -1.657816976242     1.007825032230

  Charge       = 0
  Multiplicity = 1
  Basis Set: 6-311+G*
    Blend: 6-311+G*
  Basis Set: (6-311+G* AUX)
    Blend: HEAVY-AUG-CC-PVTZ-JKFIT

    Orbital Energies [Eh]
    ---------------------

    Doubly Occupied:

       1A    -19.204297     2A    -14.467260     3A    -14.464108
       4A    -10.376707     5A    -10.366086     6A    -10.340198
       7A    -10.318147     8A    -10.314755     9A    -10.307233
      10A    -10.304624    11A    -10.304166    12A    -10.303313
      13A    -10.302487    14A    -10.296885    15A    -10.296232
      16A    -10.296051    17A    -10.294291    18A    -10.293750
      19A    -10.281099    20A    -10.277651    21A     -1.121702
      22A     -1.065587    23A     -1.046704    24A     -0.980767
      25A     -0.963892    26A     -0.908895    27A     -0.871669
      28A     -0.864379    29A     -0.857379    30A     -0.853952
      31A     -0.812178    32A     -0.767241    33A     -0.725448
      34A     -0.724391    35A     -0.711576    36A     -0.694216
      37A     -0.678947    38A     -0.665624    39A     -0.639497
      40A     -0.616403    41A     -0.599002    42A     -0.584392
      43A     -0.578913    44A     -0.561356    45A     -0.553197
      46A     -0.549886    47A     -0.538087    48A     -0.526019
      49A     -0.518835    50A     -0.516082    51A     -0.514545
      52A     -0.509018    53A     -0.495574    54A     -0.482238
      55A     -0.473867    56A     -0.469075    57A     -0.452330
      58A     -0.451857    59A     -0.444817    60A     -0.438730
      61A     -0.426932    62A     -0.403679    63A     -0.357355
      64A     -0.347617    65A     -0.344337    66A     -0.335542
      67A     -0.333076    68A     -0.316377    69A     -0.259461

  @DF-RKS Final Energy:  -840.86348251327342

   => Energetics <=

    Nuclear Repulsion Energy =           1417.6947393266129893
    One-Electron Energy =               -3954.2013289522878949
    Two-Electron Energy =                1778.3484390487903966
    DFT Exchange-Correlation Energy =     -82.6814988225626166
    Empirical Dispersion Energy =          -0.0238331138265527
    VV10 Nonlocal Energy =                  0.0000000000000000
    Total Energy =                       -840.8634825132734250

  Dipole Moment: [D]
     X:    -0.8423      Y:     2.9027      Z:    -1.5050     Total:     3.3764

*** Psi4 exiting successfully. Buy a developer a beer!
