                               Psi4 1.5 release

  ==> Input File <==

--------------------------------------------------------------------------
molecule {
0 1
 C   -0.589359   -0.075949    0.282810
 N    0.650176   -0.647570    0.378072
 C    1.955098   -0.305492   -0.052416
 C    2.827945   -1.357876   -0.347235
 H    0.641409   -1.479848    0.988207
 C    2.472835    0.991490    0.065325
 C   -1.544520   -0.614243    1.156526
 N   -2.389444   -2.044560    2.710242
 C   -2.875488   -0.174741    1.570923
 C   -1.261795   -1.803293    1.961617
 C   -3.342539   -1.043698    2.496479
 C   -0.950777    0.880046   -0.817042
 C   -0.016844    1.431661   -1.712482
 C   -2.308483    1.107203   -1.118247
 C   -0.409486    2.246975   -2.769572
 C   -2.702266    1.925825   -2.169505
 C   -1.753377    2.521681   -2.993886
 C    4.169239   -1.105761   -0.619152
 C    3.810512    1.240265   -0.222552
 C    4.664284    0.195317   -0.574634
 H    2.439880   -2.367127   -0.375809
 H    1.831791    1.794046    0.402278
 H   -2.461950   -2.816241    3.343883
 O   -0.214701   -2.520981    2.000436
 H    1.031596    1.229858   -1.615853
 H   -3.076141    0.594031   -0.570812
 H    0.347340    2.655446   -3.425111
 H   -3.757208    2.072422   -2.356709
 H   -2.056590    3.159748   -3.812384
 H    4.827397   -1.929725   -0.858264
 H    4.192736    2.248782   -0.141333
 H   -3.373450    0.737735    1.304359
 H   -4.259079   -1.023155    3.057306
 H    5.705829    0.390861   -0.787999
}
memory 8.166666666666666GB
set_num_threads(2)
psi4_io.set_default_path("/scratch/bdw2292/Psi4-1_16_Index_0-farH_in17")
set freeze_core True
E, wfn = energy('wb97x-d/6-311+G*',return_wfn=True)
oeprop(wfn,"WIBERG_LOWDIN_INDICES")
clean()
--------------------------------------------------------------------------

    Molecular point group: c1

    Geometry (in Angstrom), charge = 0, multiplicity = 1:

       Center              X                  Y                   Z               Mass
    ------------   -----------------  -----------------  -----------------  -----------------
         C           -0.589358992336    -0.075948979649     0.282810008123    12.000000000000
         N            0.650176007664    -0.647569979649     0.378072008123    14.003074004430
         C            1.955098007664    -0.305491979649    -0.052415991877    12.000000000000
         C            2.827945007664    -1.357875979649    -0.347234991877    12.000000000000
         H            0.641409007664    -1.479847979649     0.988207008123     1.007825032230
         C            2.472835007664     0.991490020351     0.065325008123    12.000000000000
         C           -1.544519992336    -0.614242979649     1.156526008123    12.000000000000
         N           -2.389443992336    -2.044559979649     2.710242008123    14.003074004430
         C           -2.875487992336    -0.174740979649     1.570923008123    12.000000000000
         C           -1.261794992336    -1.803292979649     1.961617008123    12.000000000000
         C           -3.342538992336    -1.043697979649     2.496479008123    12.000000000000
         C           -0.950776992336     0.880046020351    -0.817041991877    12.000000000000
         C           -0.016843992336     1.431661020351    -1.712481991877    12.000000000000
         C           -2.308482992336     1.107203020351    -1.118246991877    12.000000000000
         C           -0.409485992336     2.246975020351    -2.769571991877    12.000000000000
         C           -2.702265992336     1.925825020351    -2.169504991877    12.000000000000
         C           -1.753376992336     2.521681020351    -2.993885991877    12.000000000000
         C            4.169239007664    -1.105760979649    -0.619151991877    12.000000000000
         C            3.810512007664     1.240265020351    -0.222551991877    12.000000000000
         C            4.664284007664     0.195317020351    -0.574633991877    12.000000000000
         H            2.439880007664    -2.367126979649    -0.375808991877     1.007825032230
         H            1.831791007664     1.794046020351     0.402278008123     1.007825032230
         H           -2.461949992336    -2.816240979649     3.343883008123     1.007825032230
         O           -0.214700992336    -2.520980979649     2.000436008123    15.994914619570
         H            1.031596007664     1.229858020351    -1.615852991877     1.007825032230
         H           -3.076140992336     0.594031020351    -0.570811991877     1.007825032230
         H            0.347340007664     2.655446020351    -3.425110991877     1.007825032230
         H           -3.757207992336     2.072422020351    -2.356708991877     1.007825032230
         H           -2.056589992336     3.159748020351    -3.812383991877     1.007825032230
         H            4.827397007664    -1.929724979649    -0.858263991877     1.007825032230
         H            4.192736007664     2.248782020351    -0.141332991877     1.007825032230
         H           -3.373449992336     0.737735020351     1.304359008123     1.007825032230
         H           -4.259078992336    -1.023154979649     3.057306008123     1.007825032230
         H            5.705829007664     0.390861020351    -0.787998991877     1.007825032230

  Charge       = 0
  Multiplicity = 1
  Basis Set: 6-311+G*
    Blend: 6-311+G*
  Basis Set: (6-311+G* AUX)
    Blend: HEAVY-AUG-CC-PVTZ-JKFIT

    Orbital Energies [Eh]
    ---------------------

    Doubly Occupied:

       1A    -19.208761     2A    -14.467307     3A    -14.464521
       4A    -10.379882     5A    -10.375883     6A    -10.343531
       7A    -10.323071     8A    -10.317713     9A    -10.303107
      10A    -10.301624    11A    -10.300713    12A    -10.299773
      13A    -10.299601    14A    -10.298789    15A    -10.297427
      16A    -10.297346    17A    -10.295026    18A    -10.293732
      19A    -10.288109    20A    -10.281564    21A     -1.127707
      22A     -1.066392    23A     -1.050829    24A     -0.978292
      25A     -0.964936    26A     -0.909032    27A     -0.873104
      28A     -0.862096    29A     -0.857900    30A     -0.856401
      31A     -0.814120    32A     -0.769052    33A     -0.728300
      34A     -0.724723    35A     -0.712793    36A     -0.692521
      37A     -0.683881    38A     -0.663607    39A     -0.639745
      40A     -0.614053    41A     -0.601898    42A     -0.586278
      43A     -0.582889    44A     -0.560572    45A     -0.551657
      46A     -0.539238    47A     -0.537627    48A     -0.527564
      49A     -0.525993    50A     -0.518641    51A     -0.515669
      52A     -0.504928    53A     -0.500167    54A     -0.486947
      55A     -0.478815    56A     -0.474717    57A     -0.453385
      58A     -0.450432    59A     -0.442266    60A     -0.435482
      61A     -0.431691    62A     -0.407085    63A     -0.366955
      64A     -0.344705    65A     -0.341320    66A     -0.337971
      67A     -0.335015    68A     -0.308601    69A     -0.258329

  @DF-RKS Final Energy:  -840.84650959637827

   => Energetics <=

    Nuclear Repulsion Energy =           1413.9762107704032132
    One-Electron Energy =               -3946.5858540818280744
    Two-Electron Energy =                1774.4705859552548191
    DFT Exchange-Correlation Energy =     -82.6840046329465679
    Empirical Dispersion Energy =          -0.0234476072617483
    VV10 Nonlocal Energy =                  0.0000000000000000
    Total Energy =                       -840.8465095963783824

  Dipole Moment: [D]
     X:    -1.0415      Y:     2.2959      Z:    -1.2388     Total:     2.8091

*** Psi4 exiting successfully. Buy a developer a beer!
