                               Psi4 1.5 release

  ==> Input File <==

--------------------------------------------------------------------------
molecule {
0 1
 C   -0.527605   -0.137934    0.270752
 N    0.653354   -0.878937    0.203554
 C    1.963698   -0.644257   -0.302744
 C    3.035905   -1.304060    0.366660
 H    0.604788   -1.710777    0.821982
 C    2.283956    0.205207   -1.392982
 C   -1.543245   -0.588290    1.131842
 N   -2.586979   -1.833813    2.731315
 C   -2.897194   -0.111254    1.311276
 C   -1.391144   -1.729559    2.064679
 C   -3.486336   -0.869099    2.275737
 C   -0.800843    0.985807   -0.665729
 C   -1.208821    2.250964   -0.170268
 C   -0.874593    0.749071   -2.063986
 C   -1.592119    3.271247   -1.050225
 C   -1.254929    1.773411   -2.940848
 C   -1.608705    3.042749   -2.441020
 C    4.360960   -1.135366   -0.055766
 C    3.614115    0.367024   -1.808536
 C    4.662206   -0.301203   -1.148094
 H    2.830304   -1.954671    1.220983
 H    1.518450    0.755141   -1.929208
 H   -2.750650   -2.534602    3.439502
 O   -0.392532   -2.476127    2.231229
 H   -1.213800    2.427320    0.907179
 H   -0.635725   -0.243056   -2.453065
 H   -1.880710    4.246678   -0.655028
 H   -1.279826    1.583900   -4.015420
 H   -1.902199    3.840808   -3.125411
 H    5.160842   -1.658889    0.470906
 H    3.832245    1.021841   -2.654309
 H   -3.370983    0.703320    0.781076
 H   -4.483445   -0.815204    2.690037
 H    5.694717   -0.172047   -1.477181
}
set optking {
  frozen_dihedral = ("
    1 2 3 4
    2 1 12 13
    7 1 2 3
  ")
}
set {
  geom_maxiter 400
  g_convergence GAU_LOOSE
  dynamic_level 1
}
memory 8.166666666666666GB
set_num_threads(2)
psi4_io.set_default_path("/scratch/bdw2292/Psi4-1_16_Index_0-farH_in17")
for _ in range(1):
  try:
    set opt_coordinates both
    optimize('wb97x-d/6-311G')
    break
  except OptimizationConvergenceError:
    break
  else:
    try:
      set opt_coordinates cartesian
      optimize('wb97x-d/6-311G')
      break
    except OptimizationConvergenceError:
      pass
clean()
--------------------------------------------------------------------------

    Molecular point group: c1
  Charge       = 0
  Multiplicity = 1
  Basis Set: 6-311G
    Blend: 6-311G
  Basis Set: (6-311G AUX)
    Blend: CC-PVTZ-JKFIT
  @DF-RKS Final Energy:  -840.64224407056452
    Total Energy =                       -840.6422440705645158
    Molecular point group: c1
  Basis Set: 6-311G
    Blend: 6-311G
  Basis Set: (6-311G AUX)
    Blend: CC-PVTZ-JKFIT
  Basis Set: 6-311G
    Blend: 6-311G
  Basis Set: (6-311G AUX)
    Blend: CC-PVTZ-JKFIT
  @DF-RKS Final Energy:  -840.64859692858136
    Total Energy =                       -840.6485969285813553
  Basis Set: 6-311G
    Blend: 6-311G
  Basis Set: (6-311G AUX)
    Blend: CC-PVTZ-JKFIT
  Basis Set: 6-311G
    Blend: 6-311G
  @DF-RKS Final Energy:  -840.64894820079303
    Total Energy =                       -840.6489482007930292
  @DF-RKS Final Energy:  -840.64885008020178
    Total Energy =                       -840.6488500802018962
  @DF-RKS Final Energy:  -840.64905004137495
    Total Energy =                       -840.6490500413748350
  @DF-RKS Final Energy:  -840.64905993444836
    Total Energy =                       -840.6490599344484735
  @DF-RKS Final Energy:  -840.64905842112898
    Total Energy =                       -840.6490584211288706
  @DF-RKS Final Energy:  -840.64905994084756
    Total Energy =                       -840.6490599408475646
  Basis Set: (6-311G AUX)
    Blend: CC-PVTZ-JKFIT
  Basis Set: 6-311G
    Blend: 6-311G
  Basis Set: (6-311G AUX)
    Blend: CC-PVTZ-JKFIT
  @DF-RKS Final Energy:  -840.64905697552001
    Total Energy =                       -840.6490569755200113
  Basis Set: 6-311G
    Blend: 6-311G
  Basis Set: (6-311G AUX)
    Blend: CC-PVTZ-JKFIT
  Charge       = 0
  Multiplicity = 1
  Basis Set: 6-311G
    Blend: 6-311G
  Basis Set: (6-311G AUX)
    Blend: CC-PVTZ-JKFIT

    Orbital Energies [Eh]
    ---------------------

    Doubly Occupied:

       1A    -19.207835     2A    -14.474043     3A    -14.468116
       4A    -10.388138     5A    -10.372281     6A    -10.347455
       7A    -10.323871     8A    -10.319616     9A    -10.310086
      10A    -10.309156    11A    -10.308335    12A    -10.307728
      13A    -10.307221    14A    -10.295029    15A    -10.294707
      16A    -10.292891    17A    -10.292007    18A    -10.290496
      19A    -10.289470    20A    -10.281871    21A     -1.138633
      22A     -1.074329    23A     -1.057889    24A     -0.987862
      25A     -0.966770    26A     -0.915449    27A     -0.878239
      28A     -0.869985    29A     -0.858614    30A     -0.856859
      31A     -0.817946    32A     -0.774297    33A     -0.730139
      34A     -0.729231    35A     -0.715036    36A     -0.698641
      37A     -0.682872    38A     -0.666844    39A     -0.643091
      40A     -0.618576    41A     -0.601275    42A     -0.586259
      43A     -0.583763    44A     -0.567626    45A     -0.555809
      46A     -0.543063    47A     -0.536734    48A     -0.531038
      49A     -0.525229    50A     -0.519095    51A     -0.516419
      52A     -0.512718    53A     -0.497117    54A     -0.492887
      55A     -0.477858    56A     -0.475562    57A     -0.451072
      58A     -0.450303    59A     -0.446119    60A     -0.438002
      61A     -0.429686    62A     -0.405200    63A     -0.366320
      64A     -0.349573    65A     -0.341319    66A     -0.335421
      67A     -0.333373    68A     -0.308163    69A     -0.255802

  @DF-RKS Final Energy:  -840.64906200836526

   => Energetics <=

    Nuclear Repulsion Energy =           1417.2860265965568942
    One-Electron Energy =               -3952.4966736985056741
    Two-Electron Energy =                1777.2591461131125925
    DFT Exchange-Correlation Energy =     -82.6735776709966501
    Empirical Dispersion Energy =          -0.0239833485323376
    VV10 Nonlocal Energy =                  0.0000000000000000
    Total Energy =                       -840.6490620083651493

  Dipole Moment: [D]
     X:    -1.5874      Y:     2.6705      Z:    -1.4157     Total:     3.4140

    Molecular point group: c1
  Basis Set: 6-311G
    Blend: 6-311G
  Basis Set: (6-311G AUX)
    Blend: CC-PVTZ-JKFIT

  -Total Gradient:
     Atom            X                  Y                   Z
    ------   -----------------  -----------------  -----------------
       1        0.004361297476     0.007639052458     0.009510745209
       2       -0.002501827932    -0.002583493652    -0.001361085295
       3       -0.001222408545    -0.004033029140    -0.005080383707
       4        0.000291434161     0.002212093408     0.001788350503
       5        0.000091411595     0.000207116785    -0.000140456633
       6       -0.000101240369     0.000028523310    -0.000009226821
       7       -0.001733829820    -0.002354495550    -0.003011681479
       8        0.000002880204     0.000022577276     0.000181053018
       9       -0.000173425797     0.000017576087    -0.000043486596
      10       -0.000129247017    -0.000035546913    -0.000418505650
      11        0.000040498349     0.000073215534    -0.000072215986
      12        0.005806435695     0.000335565789    -0.001638419308
      13       -0.004753889849    -0.001370326626     0.000031283938
      14        0.000025945899    -0.000026064405     0.000087673074
      15       -0.000011505458     0.000027675020    -0.000030848072
      16       -0.000024051051     0.000032582761    -0.000005307478
      17        0.000011237214    -0.000026713514     0.000002777147
      18        0.000006560551     0.000018788703    -0.000001421817
      19        0.000011469493    -0.000012028558     0.000030230379
      20       -0.000024845756    -0.000007427710     0.000017204590
      21       -0.000008171055    -0.000007434160     0.000030862110
      22        0.000040267424    -0.000010156987     0.000010164433
      23        0.000001971311     0.000030728276     0.000011912951
      24        0.000013408091    -0.000150775148     0.000217346208
      25       -0.000015427701    -0.000000856237     0.000002446136
      26        0.000003095450    -0.000005122555    -0.000011569514
      27       -0.000006815482     0.000019321957    -0.000005423339
      28        0.000010140039    -0.000001177549    -0.000026031487
      29       -0.000002048026     0.000017231951    -0.000026772026
      30        0.000014247845     0.000002635897     0.000018792468
      31        0.000013628652     0.000007431624    -0.000006950673
      32        0.000015930520    -0.000006571499    -0.000016468114
      33       -0.000027136613     0.000006778584     0.000019107344
      34        0.000026356748     0.000007174614     0.000000094398

  **** Optimization is complete! (in 2 steps) ****
    Final optimized geometry and variables:
    Molecular point group: c1

    Geometry (in Angstrom), charge = 0, multiplicity = 1:

    C           -0.503786955754    -0.135011457397     0.324932649775
    N            0.626607490867    -0.889750233044     0.216990767084
    C            1.907291352831    -0.639497624697    -0.336000210926
    C            2.966648325724    -1.317379546932     0.290760587185
    H            0.605818385111    -1.694220175541     0.851792076582
    C            2.197083244429     0.227485314937    -1.394435990646
    C           -1.488635263267    -0.559375103551     1.195039533115
    N           -2.494118778409    -1.793990109324     2.800844567964
    C           -2.831633557973    -0.044200249953     1.424433787216
    C           -1.317348265292    -1.698186703317     2.092652110553
    C           -3.401670480381    -0.800913354447     2.388587196413
    C           -0.799984811566     0.989196666264    -0.602219887308
    C           -1.151940784301     2.244438642395    -0.100741463042
    C           -0.921801883405     0.742778260979    -1.975472567014
    C           -1.557306872538     3.259225175460    -0.965410171444
    C           -1.337325160768     1.752945060663    -2.835989946114
    C           -1.647748578983     3.016741514743    -2.333491254948
    C            4.272823362477    -1.161739912326    -0.151169619709
    C            3.514896863867     0.385204968573    -1.822242294978
    C            4.557508390926    -0.306367306780    -1.214977436004
    H            2.751103270276    -1.964408073197     1.131546514878
    H            1.422545294944     0.786074590269    -1.887477428745
    H           -2.660238751429    -2.503196597481     3.487951096309
    O           -0.322429025127    -2.472247241585     2.211479619412
    H           -1.092413157651     2.424990173698     0.963814257470
    H           -0.700909299716    -0.244341649873    -2.359390656241
    H           -1.808188523700     4.233448794008    -0.568958152990
    H           -1.429848831074     1.552180097237    -3.894501717818
    H           -1.968703127453     3.802190190892    -3.003908242298
    H            5.069234123805    -1.699513999447     0.344862023379
    H            3.718542952690     1.058868106665    -2.643731078200
    H           -3.291293832872     0.779847195919     0.908883616587
    H           -4.380792186184    -0.737874141946     2.827684972187
    H            5.574283485043    -0.178123241042    -1.558770011460

*** Psi4 exiting successfully. Buy a developer a beer!
