                               Psi4 1.5 release

  ==> Input File <==

--------------------------------------------------------------------------
molecule {
0 1
 C   -0.581881   -0.212187    0.092216
 N    0.596999   -0.272863    0.780679
 C    1.833325    0.416806    0.737013
 C    2.960062   -0.307205    1.152942
 H    0.514892   -0.889436    1.603070
 C    1.950500    1.803917    0.602189
 C   -1.660284   -0.882650    0.658895
 N   -2.809058   -2.141310    2.149505
 C   -3.061825   -0.946137    0.262204
 C   -1.548354   -1.655656    1.889562
 C   -3.718115   -1.698559    1.174228
 C   -0.714598    0.334015   -1.296774
 C   -0.122723    1.497326   -1.801908
 C   -1.366787   -0.508059   -2.221181
 C   -0.234637    1.839282   -3.148018
 C   -1.474748   -0.170304   -3.564095
 C   -0.913241    1.013177   -4.036063
 C    4.193812    0.315874    1.292025
 C    3.191403    2.424450    0.724787
 C    4.322419    1.683564    1.054287
 H    2.857735   -1.368072    1.338171
 H    1.066623    2.409425    0.483715
 H   -3.018304   -2.713032    2.944455
 O   -0.520453   -1.873165    2.601619
 H    0.401511    2.174904   -1.157363
 H   -1.765126   -1.451860   -1.882145
 H    0.219212    2.756319   -3.497623
 H   -1.982055   -0.842526   -4.242404
 H   -0.993126    1.279957   -5.080803
 H    5.052547   -0.266354    1.596277
 H    3.261898    3.496881    0.603296
 H   -3.509877   -0.442901   -0.575339
 H   -4.760726   -1.951417    1.239430
 H    5.282530    2.169113    1.158097
}
memory 8.166666666666666GB
set_num_threads(2)
psi4_io.set_default_path("/scratch/bdw2292/Psi4-1_16_Index_0-farH_in17")
set freeze_core True
E, wfn = energy('wb97x-d/6-311+G*',return_wfn=True)
oeprop(wfn,"WIBERG_LOWDIN_INDICES")
clean()
--------------------------------------------------------------------------

    Molecular point group: c1

    Geometry (in Angstrom), charge = 0, multiplicity = 1:

       Center              X                  Y                   Z               Mass
    ------------   -----------------  -----------------  -----------------  -----------------
         C           -0.581881018792    -0.212187063147     0.092215989409    12.000000000000
         N            0.596998981208    -0.272863063147     0.780678989409    14.003074004430
         C            1.833324981208     0.416805936853     0.737012989409    12.000000000000
         C            2.960061981208    -0.307205063147     1.152941989409    12.000000000000
         H            0.514891981208    -0.889436063147     1.603069989409     1.007825032230
         C            1.950499981208     1.803916936853     0.602188989409    12.000000000000
         C           -1.660284018792    -0.882650063147     0.658894989409    12.000000000000
         N           -2.809058018792    -2.141310063147     2.149504989409    14.003074004430
         C           -3.061825018792    -0.946137063147     0.262203989409    12.000000000000
         C           -1.548354018792    -1.655656063147     1.889561989409    12.000000000000
         C           -3.718115018792    -1.698559063147     1.174227989409    12.000000000000
         C           -0.714598018792     0.334014936853    -1.296774010591    12.000000000000
         C           -0.122723018792     1.497325936853    -1.801908010591    12.000000000000
         C           -1.366787018792    -0.508059063147    -2.221181010591    12.000000000000
         C           -0.234637018792     1.839281936853    -3.148018010591    12.000000000000
         C           -1.474748018792    -0.170304063147    -3.564095010591    12.000000000000
         C           -0.913241018792     1.013176936853    -4.036063010591    12.000000000000
         C            4.193811981208     0.315873936853     1.292024989409    12.000000000000
         C            3.191402981208     2.424449936853     0.724786989409    12.000000000000
         C            4.322418981208     1.683563936853     1.054286989409    12.000000000000
         H            2.857734981208    -1.368072063147     1.338170989409     1.007825032230
         H            1.066622981208     2.409424936853     0.483714989409     1.007825032230
         H           -3.018304018792    -2.713032063147     2.944454989409     1.007825032230
         O           -0.520453018792    -1.873165063147     2.601618989409    15.994914619570
         H            0.401510981208     2.174903936853    -1.157363010591     1.007825032230
         H           -1.765126018792    -1.451860063147    -1.882145010591     1.007825032230
         H            0.219211981208     2.756318936853    -3.497623010591     1.007825032230
         H           -1.982055018792    -0.842526063147    -4.242404010591     1.007825032230
         H           -0.993126018792     1.279956936853    -5.080803010591     1.007825032230
         H            5.052546981208    -0.266354063147     1.596276989409     1.007825032230
         H            3.261897981208     3.496880936853     0.603295989409     1.007825032230
         H           -3.509877018792    -0.442901063147    -0.575339010591     1.007825032230
         H           -4.760726018792    -1.951417063147     1.239429989409     1.007825032230
         H            5.282529981208     2.169112936853     1.158096989409     1.007825032230

  Charge       = 0
  Multiplicity = 1
  Basis Set: 6-311+G*
    Blend: 6-311+G*
  Basis Set: (6-311+G* AUX)
    Blend: HEAVY-AUG-CC-PVTZ-JKFIT

    Orbital Energies [Eh]
    ---------------------

    Doubly Occupied:

       1A    -19.206816     2A    -14.468045     3A    -14.465821
       4A    -10.378093     5A    -10.372115     6A    -10.344623
       7A    -10.321604     8A    -10.316135     9A    -10.304108
      10A    -10.303240    11A    -10.302704    12A    -10.301153
      13A    -10.300493    14A    -10.298983    15A    -10.298320
      16A    -10.296857    17A    -10.294761    18A    -10.293486
      19A    -10.283320    20A    -10.279182    21A     -1.124559
      22A     -1.066483    23A     -1.048788    24A     -0.979863
      25A     -0.964880    26A     -0.910946    27A     -0.871904
      28A     -0.862753    29A     -0.858172    30A     -0.856222
      31A     -0.813170    32A     -0.768970    33A     -0.728968
      34A     -0.724450    35A     -0.711650    36A     -0.693194
      37A     -0.681053    38A     -0.663483    39A     -0.642783
      40A     -0.614561    41A     -0.600897    42A     -0.587272
      43A     -0.581451    44A     -0.558845    45A     -0.551046
      46A     -0.547632    47A     -0.540179    48A     -0.525988
      49A     -0.522281    50A     -0.515525    51A     -0.511204
      52A     -0.510537    53A     -0.498625    54A     -0.483536
      55A     -0.476687    56A     -0.471422    57A     -0.454318
      58A     -0.450563    59A     -0.445080    60A     -0.435154
      61A     -0.430692    62A     -0.405270    63A     -0.363528
      64A     -0.346015    65A     -0.341406    66A     -0.338057
      67A     -0.336822    68A     -0.310284    69A     -0.258672

  @DF-RKS Final Energy:  -840.85160545435042

   => Energetics <=

    Nuclear Repulsion Energy =           1411.7523420174850344
    One-Electron Energy =               -3942.1860385385252812
    Two-Electron Energy =                1772.2876860121150457
    DFT Exchange-Correlation Energy =     -82.6822056711681341
    Empirical Dispersion Energy =          -0.0233892742568987
    VV10 Nonlocal Energy =                  0.0000000000000000
    Total Energy =                       -840.8516054543505334

  Dipole Moment: [D]
     X:    -0.7988      Y:     1.3760      Z:    -2.4743     Total:     2.9417

*** Psi4 exiting successfully. Buy a developer a beer!
