                               Psi4 1.5 release

  ==> Input File <==

--------------------------------------------------------------------------
molecule {
0 1
 C   -0.564168   -0.364887    0.227869
 N    0.721752   -0.720043    0.578324
 C    1.977829   -0.169709    0.215365
 C    3.111633   -1.021283    0.168640
 H    0.743705   -1.409311    1.344953
 C    2.149941    1.217413   -0.026579
 C   -1.595542   -0.895677    0.988190
 N   -3.168200   -2.390029    1.615602
 C   -2.269461   -0.391796    2.158618
 C   -2.193402   -2.201279    0.662862
 C   -3.214047   -1.309318    2.502200
 C   -0.851374    0.572674   -0.891508
 C   -0.247034    0.380963   -2.160890
 C   -1.700040    1.692759   -0.698410
 C   -0.487098    1.283698   -3.205125
 C   -1.938391    2.590456   -1.747857
 C   -1.333620    2.393043   -3.005974
 C    4.373918   -0.501056   -0.149239
 C    3.416341    1.726809   -0.345321
 C    4.536677    0.874030   -0.412678
 H    3.003957   -2.089453    0.371428
 H    1.301844    1.900837    0.033527
 H   -3.745458   -3.218177    1.628715
 O   -1.900613   -3.003355   -0.248485
 H    0.407040   -0.478019   -2.323239
 H   -2.167809    1.857310    0.273572
 H   -0.013792    1.126060   -4.175790
 H   -2.592973    3.448639   -1.586079
 H   -1.519264    3.094843   -3.821138
 H    5.233168   -1.172784   -0.191327
 H    3.528049    2.794834   -0.540070
 H   -2.067920    0.536803    2.673621
 H   -3.922796   -1.304615    3.318734
 H    5.520299    1.274957   -0.663624
}
set optking {
  frozen_dihedral = ("
    2 1 12 13
    7 1 2 3
    1 2 3 4
  ")
}
set {
  geom_maxiter 400
  g_convergence GAU_LOOSE
  dynamic_level 1
}
memory 8.166666666666666GB
set_num_threads(2)
psi4_io.set_default_path("/scratch/bdw2292/Psi4-1_16_Index_0-farH_in17")
for _ in range(1):
  try:
    set opt_coordinates both
    optimize('wb97x-d/6-311G')
    break
  except OptimizationConvergenceError:
    break
  else:
    try:
      set opt_coordinates cartesian
      optimize('wb97x-d/6-311G')
      break
    except OptimizationConvergenceError:
      pass
clean()
--------------------------------------------------------------------------

    Molecular point group: c1
  Charge       = 0
  Multiplicity = 1
  Basis Set: 6-311G
    Blend: 6-311G
  Basis Set: (6-311G AUX)
    Blend: CC-PVTZ-JKFIT
  @DF-RKS Final Energy:  -840.56572499270897
    Total Energy =                       -840.5657249927088515
    Molecular point group: c1
  Basis Set: 6-311G
    Blend: 6-311G
  Basis Set: (6-311G AUX)
    Blend: CC-PVTZ-JKFIT
  Basis Set: 6-311G
    Blend: 6-311G
  Basis Set: (6-311G AUX)
    Blend: CC-PVTZ-JKFIT
  @DF-RKS Final Energy:  -840.56738322829563
    Total Energy =                       -840.5673832282956255
  Basis Set: 6-311G
    Blend: 6-311G
  Basis Set: (6-311G AUX)
    Blend: CC-PVTZ-JKFIT
  Basis Set: 6-311G
    Blend: 6-311G
  @DF-RKS Final Energy:  -840.58120695274692
    Total Energy =                       -840.5812069527470385
  @DF-RKS Final Energy:  -840.58683823794456
    Total Energy =                       -840.5868382379445620
  @DF-RKS Final Energy:  -840.60354019815588
    Total Energy =                       -840.6035401981558834
  @DF-RKS Final Energy:  -840.61922107094006
    Total Energy =                       -840.6192210709401706
  @DF-RKS Final Energy:  -840.61986892445316
    Total Energy =                       -840.6198689244531579
  @DF-RKS Final Energy:  -840.63773644978460
    Total Energy =                       -840.6377364497845974
  @DF-RKS Final Energy:  -840.64696612735315
    Total Energy =                       -840.6469661273530392
  @DF-RKS Final Energy:  -840.64754575049267
    Total Energy =                       -840.6475457504926680
  @DF-RKS Final Energy:  -840.65546183502079
    Total Energy =                       -840.6554618350207875
  @DF-RKS Final Energy:  -840.65593996777659
    Total Energy =                       -840.6559399677764759
  @DF-RKS Final Energy:  -840.65606460425431
    Total Energy =                       -840.6560646042544249
  @DF-RKS Final Energy:  -840.65613217841621
    Total Energy =                       -840.6561321784163283
  @DF-RKS Final Energy:  -840.65613075472936
    Total Energy =                       -840.6561307547294746
  @DF-RKS Final Energy:  -840.65613213534641
    Total Energy =                       -840.6561321353465246
  Basis Set: (6-311G AUX)
    Blend: CC-PVTZ-JKFIT
  Basis Set: 6-311G
    Blend: 6-311G
  Basis Set: (6-311G AUX)
    Blend: CC-PVTZ-JKFIT
  @DF-RKS Final Energy:  -840.65611144548086
    Total Energy =                       -840.6561114454809740
  Basis Set: 6-311G
    Blend: 6-311G
  Basis Set: (6-311G AUX)
    Blend: CC-PVTZ-JKFIT
  Charge       = 0
  Multiplicity = 1
  Basis Set: 6-311G
    Blend: 6-311G
  Basis Set: (6-311G AUX)
    Blend: CC-PVTZ-JKFIT

    Orbital Energies [Eh]
    ---------------------

    Doubly Occupied:

       1A    -19.206372     2A    -14.470500     3A    -14.466979
       4A    -10.386874     5A    -10.369321     6A    -10.344682
       7A    -10.320793     8A    -10.319318     9A    -10.307036
      10A    -10.306157    11A    -10.305730    12A    -10.305106
      13A    -10.304158    14A    -10.297053    15A    -10.296854
      16A    -10.295434    17A    -10.295263    18A    -10.292401
      19A    -10.289255    20A    -10.281571    21A     -1.137452
      22A     -1.073865    23A     -1.056863    24A     -0.984372
      25A     -0.967616    26A     -0.913191    27A     -0.876494
      28A     -0.866858    29A     -0.859106    30A     -0.857867
      31A     -0.818105    32A     -0.772519    33A     -0.729390
      34A     -0.724868    35A     -0.716571    36A     -0.698086
      37A     -0.682518    38A     -0.667952    39A     -0.640767
      40A     -0.620127    41A     -0.599918    42A     -0.585513
      43A     -0.582729    44A     -0.566411    45A     -0.555322
      46A     -0.545588    47A     -0.536276    48A     -0.529163
      49A     -0.524275    50A     -0.519848    51A     -0.516757
      52A     -0.512107    53A     -0.497247    54A     -0.482124
      55A     -0.480234    56A     -0.474938    57A     -0.451432
      58A     -0.449549    59A     -0.445070    60A     -0.439577
      61A     -0.429374    62A     -0.404296    63A     -0.365786
      64A     -0.346700    65A     -0.342631    66A     -0.334519
      67A     -0.331578    68A     -0.307681    69A     -0.256874

  @DF-RKS Final Energy:  -840.65613914449443

   => Energetics <=

    Nuclear Repulsion Energy =           1426.5992970033917118
    One-Electron Energy =               -3971.2463186534696433
    Two-Electron Energy =                1786.6902364735328774
    DFT Exchange-Correlation Energy =     -82.6749142862847606
    Empirical Dispersion Energy =          -0.0244396816647659
    VV10 Nonlocal Energy =                  0.0000000000000000
    Total Energy =                       -840.6561391444945457

  Dipole Moment: [D]
     X:    -2.1614      Y:     1.4850      Z:    -2.0519     Total:     3.3297

    Molecular point group: c1
  Basis Set: 6-311G
    Blend: 6-311G
  Basis Set: (6-311G AUX)
    Blend: CC-PVTZ-JKFIT

  -Total Gradient:
     Atom            X                  Y                   Z
    ------   -----------------  -----------------  -----------------
       1        0.000457520560     0.000792055729     0.000651383956
       2       -0.000809078049    -0.001588703900    -0.000585888631
       3        0.000163826520     0.000313323102     0.000318479271
       4        0.000093792251     0.000094711436     0.000164501036
       5       -0.000013404780     0.000021255531    -0.000077753212
       6        0.000190993394     0.000191985837    -0.000240044539
       7        0.000764506873     0.001224605451    -0.000279560764
       8        0.000090465848     0.000248111465     0.000218563615
       9       -0.000184631635    -0.000325404423    -0.000014327808
      10        0.000007533391    -0.000975517461    -0.000192609497
      11        0.000033435380     0.000199967669    -0.000130922551
      12       -0.001088818489    -0.000780772834     0.000305269068
      13        0.000514638916     0.000294212237    -0.000210589869
      14        0.000073209371     0.000034770367     0.000117583066
      15        0.000022646419    -0.000150131199    -0.000127481985
      16       -0.000015904519     0.000031674369    -0.000050113414
      17       -0.000084524007     0.000152956886    -0.000047537138
      18        0.000029621943    -0.000095870895     0.000026204828
      19       -0.000074817449     0.000068716060     0.000036527577
      20        0.000051370767     0.000027494948    -0.000026584951
      21       -0.000003900708    -0.000030507221     0.000019936815
      22       -0.000073331510     0.000037275104     0.000057971452
      23       -0.000016382174     0.000019151290     0.000032869626
      24       -0.000180237821     0.000300191660     0.000074728330
      25        0.000035047263    -0.000099633297     0.000026955152
      26       -0.000007805245     0.000040943237     0.000056752603
      27       -0.000007832915     0.000007662613    -0.000024105202
      28       -0.000037159276     0.000092464833     0.000012741921
      29       -0.000031021394     0.000033743220    -0.000069799313
      30        0.000006698553    -0.000019226074     0.000008770249
      31        0.000004714257     0.000056354544    -0.000023073863
      32       -0.000071243272     0.000048867157    -0.000053258165
      33       -0.000041750193    -0.000008406638     0.000057187027
      34       -0.000028283525    -0.000016500265     0.000001331428

  **** Optimization is complete! (in 2 steps) ****
    Final optimized geometry and variables:
    Molecular point group: c1

    Geometry (in Angstrom), charge = 0, multiplicity = 1:

    C           -0.384938066668    -0.160076207149     0.585094914087
    N            0.871063467182    -0.658515257035     0.404889250055
    C            1.793435035447    -0.387023712953    -0.634509322073
    C            2.695530881470    -1.398155649591    -0.980960696640
    H            1.231277586560    -1.165696604600     1.217726693265
    C            1.869691218364     0.853274410635    -1.276024112480
    C           -0.993240940285    -0.314002833522     1.811152585176
    N           -1.236208398091    -0.926128442077     3.975057175469
    C           -2.342432503846     0.013752168453     2.252778982971
    C           -0.322101045017    -0.945265411233     2.944485871902
    C           -2.449787155058    -0.356161494655     3.548533119887
    C           -1.101785777891     0.459772467663    -0.558316551417
    C           -1.179270636246    -0.210772314868    -1.784181528735
    C           -1.704138794810     1.714340986837    -0.422657497179
    C           -1.858862854792     0.361670065130    -2.853553873441
    C           -2.377700969731     2.288942489912    -1.498059967035
    C           -2.457700326659     1.613572478595    -2.714037413476
    C            3.653055600720    -1.176280567890    -1.965051810725
    C            2.817607714065     1.060240037608    -2.273408729189
    C            3.712535269995     0.050766605710    -2.623543338718
    H            2.635082051366    -2.353913070946    -0.477421660421
    H            1.199536244277     1.651155274848    -0.993478229637
    H           -1.043304841589    -1.304399611803     4.881932337562
    O            0.842007007169    -1.435705637121     3.002069424019
    H           -0.706135011110    -1.177051230417    -1.893890222356
    H           -1.629722857250     2.240218925738     0.519559886947
    H           -1.919331657971    -0.166407442810    -3.795103767715
    H           -2.835302730519     3.262545437091    -1.386358861169
    H           -2.981401038226     2.059379949566    -3.548711148066
    H            4.347552880728    -1.964950628850    -2.220432300121
    H            2.864215749412     2.021430069805    -2.767098024408
    H           -3.117116182506     0.458901558154     1.654356356805
    H           -3.283937448969    -0.278341948139     4.222185251099
    H            4.451309244034     0.220465453941    -3.394260421891

*** Psi4 exiting successfully. Buy a developer a beer!
