                               Psi4 1.5 release

  ==> Input File <==

--------------------------------------------------------------------------
molecule {
0 1
 C   -0.615536   -0.337409    0.155074
 N    0.689782   -0.772637    0.394692
 C    1.988225   -0.448374   -0.088795
 C    2.949948   -1.499690   -0.079991
 H    0.718331   -1.440956    1.189469
 C    2.398738    0.824770   -0.555806
 C   -1.615744   -0.705576    1.066344
 N   -2.629297   -1.752823    2.816559
 C   -3.004923   -0.309842    1.125730
 C   -1.412661   -1.650152    2.187851
 C   -3.578154   -0.949670    2.181039
 C   -0.925680    0.752913   -0.805009
 C   -0.616347    2.104279   -0.511688
 C   -1.515722    0.436712   -2.052722
 C   -0.893256    3.112621   -1.443688
 C   -1.794260    1.448966   -2.980572
 C   -1.483607    2.792088   -2.683248
 C    4.256845   -1.282271   -0.536438
 C    3.708274    1.032448   -1.013506
 C    4.647562   -0.015813   -1.009626
 H    2.671794   -2.491990    0.284574
 H    1.718234    1.667472   -0.571906
 H   -2.770925   -2.341115    3.624740
 O   -0.359615   -2.250597    2.521899
 H   -0.172674    2.354727    0.454316
 H   -1.751102   -0.603383   -2.286432
 H   -0.651196    4.149915   -1.205950
 H   -2.253137    1.195151   -3.937629
 H   -1.700003    3.578947   -3.408090
 H    4.972583   -2.105998   -0.522435
 H    3.995691    2.021281   -1.375625
 H   -3.509943    0.371149    0.454499
 H   -4.593986   -0.912000    2.548704
 H    5.664920    0.152197   -1.367447
}
set optking {
  frozen_dihedral = ("
    2 1 12 13
    7 1 2 3
    1 2 3 4
  ")
}
set {
  geom_maxiter 400
  g_convergence GAU_LOOSE
  dynamic_level 1
}
memory 8.166666666666666GB
set_num_threads(2)
psi4_io.set_default_path("/scratch/bdw2292/Psi4-1_16_Index_0-farH_in17")
for _ in range(1):
  try:
    set opt_coordinates both
    optimize('wb97x-d/6-311G')
    break
  except OptimizationConvergenceError:
    break
  else:
    try:
      set opt_coordinates cartesian
      optimize('wb97x-d/6-311G')
      break
    except OptimizationConvergenceError:
      pass
clean()
--------------------------------------------------------------------------

    Molecular point group: c1
  Charge       = 0
  Multiplicity = 1
  Basis Set: 6-311G
    Blend: 6-311G
  Basis Set: (6-311G AUX)
    Blend: CC-PVTZ-JKFIT
  @DF-RKS Final Energy:  -840.63719494728377
    Total Energy =                       -840.6371949472836604
    Molecular point group: c1
  Basis Set: 6-311G
    Blend: 6-311G
  Basis Set: (6-311G AUX)
    Blend: CC-PVTZ-JKFIT
  Basis Set: 6-311G
    Blend: 6-311G
  Basis Set: (6-311G AUX)
    Blend: CC-PVTZ-JKFIT
  @DF-RKS Final Energy:  -840.64022822326433
    Total Energy =                       -840.6402282232643302
  Basis Set: 6-311G
    Blend: 6-311G
  Basis Set: (6-311G AUX)
    Blend: CC-PVTZ-JKFIT
  Basis Set: 6-311G
    Blend: 6-311G
  @DF-RKS Final Energy:  -840.64442596271840
    Total Energy =                       -840.6444259627182873
  @DF-RKS Final Energy:  -840.64468592200421
    Total Energy =                       -840.6446859220043279
  @DF-RKS Final Energy:  -840.64473655532697
    Total Energy =                       -840.6447365553270856
  @DF-RKS Final Energy:  -840.64486943913550
    Total Energy =                       -840.6448694391356184
  Basis Set: (6-311G AUX)
    Blend: CC-PVTZ-JKFIT
  Basis Set: 6-311G
    Blend: 6-311G
  Basis Set: (6-311G AUX)
    Blend: CC-PVTZ-JKFIT
  @DF-RKS Final Energy:  -840.64487864396494
    Total Energy =                       -840.6448786439649439
  Basis Set: 6-311G
    Blend: 6-311G
  Basis Set: (6-311G AUX)
    Blend: CC-PVTZ-JKFIT
  Charge       = 0
  Multiplicity = 1
  Basis Set: 6-311G
    Blend: 6-311G
  Basis Set: (6-311G AUX)
    Blend: CC-PVTZ-JKFIT

    Orbital Energies [Eh]
    ---------------------

    Doubly Occupied:

       1A    -19.206476     2A    -14.473374     3A    -14.466668
       4A    -10.386067     5A    -10.372128     6A    -10.347597
       7A    -10.323450     8A    -10.318087     9A    -10.309828
      10A    -10.307541    11A    -10.306824    12A    -10.306044
      13A    -10.305361    14A    -10.296652    15A    -10.296059
      16A    -10.294831    17A    -10.294341    18A    -10.291852
      19A    -10.287674    20A    -10.280295    21A     -1.137043
      22A     -1.072461    23A     -1.056397    24A     -0.986694
      25A     -0.968230    26A     -0.914814    27A     -0.876304
      28A     -0.869180    29A     -0.859207    30A     -0.858659
      31A     -0.817255    32A     -0.773309    33A     -0.729924
      34A     -0.727067    35A     -0.715865    36A     -0.699335
      37A     -0.681757    38A     -0.667119    39A     -0.645377
      40A     -0.618768    41A     -0.600599    42A     -0.586070
      43A     -0.583184    44A     -0.567678    45A     -0.555120
      46A     -0.549201    47A     -0.539381    48A     -0.529114
      49A     -0.523768    50A     -0.518796    51A     -0.517379
      52A     -0.510195    53A     -0.496829    54A     -0.484792
      55A     -0.477294    56A     -0.473667    57A     -0.453653
      58A     -0.451089    59A     -0.445138    60A     -0.437484
      61A     -0.428562    62A     -0.403555    63A     -0.359762
      64A     -0.347605    65A     -0.345669    66A     -0.335952
      67A     -0.332684    68A     -0.309322    69A     -0.255493

  @DF-RKS Final Energy:  -840.64488244778283

   => Energetics <=

    Nuclear Repulsion Energy =           1414.5919304212129646
    One-Electron Energy =               -3947.1603092577815914
    Two-Electron Energy =                1774.6199847193456662
    DFT Exchange-Correlation Energy =     -82.6728759670751572
    Empirical Dispersion Energy =          -0.0236123634847158
    VV10 Nonlocal Energy =                  0.0000000000000000
    Total Energy =                       -840.6448824477828339

  Dipole Moment: [D]
     X:    -1.3061      Y:     2.0583      Z:    -2.2705     Total:     3.3313

    Molecular point group: c1
  Basis Set: 6-311G
    Blend: 6-311G
  Basis Set: (6-311G AUX)
    Blend: CC-PVTZ-JKFIT

  -Total Gradient:
     Atom            X                  Y                   Z
    ------   -----------------  -----------------  -----------------
       1        0.000589293349    -0.017934428171    -0.012822351214
       2        0.000662912749    -0.000333539636    -0.003626468708
       3        0.001128190678     0.007354705235     0.008775001864
       4       -0.000378403733    -0.000435394579    -0.001566879885
       5        0.000079577255    -0.000100692882     0.000030344572
       6       -0.000047408441    -0.000306067610     0.000137850243
       7        0.001438149280     0.007887331452     0.005020676171
       8       -0.000111358595     0.000136158412     0.000022876855
       9        0.000001871699    -0.000260325405    -0.000176263406
      10        0.000376226822    -0.000408685462    -0.000065080249
      11       -0.000019799568     0.000057012766     0.000131671625
      12       -0.010781089946     0.005754466314     0.007461809030
      13        0.007095852057    -0.001656124825    -0.003247236422
      14        0.000171408544     0.000060379780     0.000021286628
      15       -0.000033453505    -0.000112818753    -0.000048874046
      16       -0.000002226771     0.000095782415     0.000026965716
      17        0.000009636353    -0.000081959952     0.000100560130
      18       -0.000070479958     0.000059984640    -0.000047980285
      19        0.000063167105    -0.000082060652     0.000084898607
      20       -0.000056860135     0.000014161339     0.000038991560
      21       -0.000005927446     0.000009095645    -0.000017498085
      22       -0.000120856988     0.000149995310    -0.000034188646
      23       -0.000014971264     0.000052980091    -0.000064611930
      24       -0.000314534970    -0.000018014878    -0.000139294079
      25        0.000211457009    -0.000013124800    -0.000010146674
      26        0.000025592325     0.000088928026     0.000010270017
      27        0.000013833239    -0.000038404475    -0.000001920855
      28        0.000006134252     0.000078931646     0.000058429670
      29        0.000009368823     0.000014869486     0.000002776200
      30        0.000009213600    -0.000019356061     0.000013626706
      31       -0.000014434938    -0.000028855117     0.000005106461
      32       -0.000014847971    -0.000020159931     0.000006612340
      33       -0.000047570230    -0.000013610438     0.000010204017
      34       -0.000008127347    -0.000007405325    -0.000010928844

  **** Optimization is complete! (in 8 steps) ****
    Final optimized geometry and variables:
    Molecular point group: c1

    Geometry (in Angstrom), charge = 0, multiplicity = 1:

    C           -0.574517535425    -0.253011765570     0.219634484289
    N            0.677733191341    -0.675357176851     0.550112781639
    C            1.988930096459    -0.337018700797     0.132604763085
    C            2.929321558254    -1.376999656175     0.218463609981
    H            0.654208606916    -1.329196502099     1.341977693907
    C            2.410324483885     0.913204942069    -0.322108695248
    C           -1.619598888948    -0.600128994964     1.051496270303
    N           -2.720416183224    -1.593554443768     2.756082851226
    C           -3.030804610817    -0.252043224822     0.973829808391
    C           -1.463885116240    -1.478823558190     2.204401962330
    C           -3.657023944795    -0.852257083564     2.010944241007
    C           -0.865595539861     0.682456346065    -0.906849023650
    C           -0.546720502417     2.041312367495    -0.847121315076
    C           -1.468515038875     0.174720874413    -2.061328192825
    C           -0.838122206765     2.880813717637    -1.918140753712
    C           -1.755012708995     1.014314591347    -3.135198152789
    C           -1.436693381359     2.368044806894    -3.067150411884
    C            4.256580701558    -1.167096692324    -0.126848139686
    C            3.741832096826     1.110468721287    -0.686758793369
    C            4.671628085099     0.081321598221    -0.590010849953
    H            2.601803164178    -2.350167514459     0.559662442411
    H            1.725176957381     1.736478744279    -0.393787092662
    H           -2.910508037229    -2.140907721551     3.572686644323
    O           -0.413052590988    -2.039966024981     2.632749355462
    H           -0.125037436873     2.452666264676     0.059783261223
    H           -1.712871251343    -0.877474077059    -2.110815008374
    H           -0.602472621374     3.934132507300    -1.852875069489
    H           -2.223812307305     0.611045724320    -4.022023838078
    H           -1.658476391091     3.020748158294    -3.900232927026
    H            4.963585632193    -1.981144783093    -0.043953746937
    H            4.048007099635     2.085539868258    -1.040676985534
    H           -3.484609292342     0.386126910025     0.236428532850
    H           -4.690607980640    -0.824276382036     2.304989445844
    H            5.702768259152     0.247014074352    -0.868812558760

*** Psi4 exiting successfully. Buy a developer a beer!
