                               Psi4 1.5 release

  ==> Input File <==

--------------------------------------------------------------------------
molecule {
0 1
 C   -0.571224   -0.220430    0.372300
 N    0.609733   -0.899150    0.426440
 C    1.850546   -0.568160   -0.169164
 C    2.701862   -1.620467   -0.521712
 H    0.617596   -1.653477    1.118248
 C    2.271026    0.751271   -0.360962
 C   -1.570769   -0.548214    1.261896
 N   -2.598131   -1.620385    2.967197
 C   -2.942890   -0.070380    1.369534
 C   -1.395028   -1.563045    2.297648
 C   -3.523477   -0.725772    2.399762
 C   -0.785573    0.797302   -0.687958
 C   -1.253627    2.074115   -0.364138
 C   -0.536526    0.475503   -2.026777
 C   -1.464512    3.018429   -1.365930
 C   -0.755783    1.417481   -3.025587
 C   -1.217073    2.691860   -2.697572
 C    3.951632   -1.356782   -1.071827
 C    3.514999    1.005894   -0.930483
 C    4.360741   -0.042143   -1.288620
 H    2.373441   -2.639434   -0.365082
 H    1.637181    1.571814   -0.061068
 H   -2.767472   -2.245524    3.731004
 O   -0.381146   -2.277122    2.543259
 H   -1.437037    2.325753    0.671689
 H   -0.170078   -0.510189   -2.278796
 H   -1.819477    4.006400   -1.106070
 H   -0.565536    1.158598   -4.058038
 H   -1.382350    3.424855   -3.475383
 H    4.601910   -2.179426   -1.336368
 H    3.828128    2.030330   -1.079515
 H   -3.413404    0.660645    0.736513
 H   -4.521797   -0.649881    2.791297
 H    5.329004    0.162836   -1.723562
}
memory 8.166666666666666GB
set_num_threads(2)
psi4_io.set_default_path("/scratch/bdw2292/Psi4-1_16_Index_0-farH_in17")
set freeze_core True
E, wfn = energy('wb97x-d/6-311+G*',return_wfn=True)
oeprop(wfn,"WIBERG_LOWDIN_INDICES")
clean()
--------------------------------------------------------------------------

    Molecular point group: c1

    Geometry (in Angstrom), charge = 0, multiplicity = 1:

       Center              X                  Y                   Z               Mass
    ------------   -----------------  -----------------  -----------------  -----------------
         C           -0.571223967974    -0.220429952190     0.372300020952    12.000000000000
         N            0.609733032026    -0.899149952190     0.426440020952    14.003074004430
         C            1.850546032026    -0.568159952190    -0.169163979048    12.000000000000
         C            2.701862032026    -1.620466952190    -0.521711979048    12.000000000000
         H            0.617596032026    -1.653476952190     1.118248020952     1.007825032230
         C            2.271026032026     0.751271047810    -0.360961979048    12.000000000000
         C           -1.570768967974    -0.548213952190     1.261896020952    12.000000000000
         N           -2.598130967974    -1.620384952190     2.967197020952    14.003074004430
         C           -2.942889967974    -0.070379952190     1.369534020952    12.000000000000
         C           -1.395027967974    -1.563044952190     2.297648020952    12.000000000000
         C           -3.523476967974    -0.725771952190     2.399762020952    12.000000000000
         C           -0.785572967974     0.797302047810    -0.687957979048    12.000000000000
         C           -1.253626967974     2.074115047810    -0.364137979048    12.000000000000
         C           -0.536525967974     0.475503047810    -2.026776979048    12.000000000000
         C           -1.464511967974     3.018429047810    -1.365929979048    12.000000000000
         C           -0.755782967974     1.417481047810    -3.025586979048    12.000000000000
         C           -1.217072967974     2.691860047810    -2.697571979048    12.000000000000
         C            3.951632032026    -1.356781952190    -1.071826979048    12.000000000000
         C            3.514999032026     1.005894047810    -0.930482979048    12.000000000000
         C            4.360741032026    -0.042142952190    -1.288619979048    12.000000000000
         H            2.373441032026    -2.639433952190    -0.365081979048     1.007825032230
         H            1.637181032026     1.571814047810    -0.061067979048     1.007825032230
         H           -2.767471967974    -2.245523952190     3.731004020952     1.007825032230
         O           -0.381145967974    -2.277121952190     2.543259020952    15.994914619570
         H           -1.437036967974     2.325753047810     0.671689020952     1.007825032230
         H           -0.170077967974    -0.510188952190    -2.278795979048     1.007825032230
         H           -1.819476967974     4.006400047810    -1.106069979048     1.007825032230
         H           -0.565535967974     1.158598047810    -4.058037979048     1.007825032230
         H           -1.382349967974     3.424855047810    -3.475382979048     1.007825032230
         H            4.601910032026    -2.179425952190    -1.336367979048     1.007825032230
         H            3.828128032026     2.030330047810    -1.079514979048     1.007825032230
         H           -3.413403967974     0.660645047810     0.736513020952     1.007825032230
         H           -4.521796967974    -0.649880952190     2.791297020952     1.007825032230
         H            5.329004032026     0.162836047810    -1.723561979048     1.007825032230

  Charge       = 0
  Multiplicity = 1
  Basis Set: 6-311+G*
    Blend: 6-311+G*
  Basis Set: (6-311+G* AUX)
    Blend: HEAVY-AUG-CC-PVTZ-JKFIT

    Orbital Energies [Eh]
    ---------------------

    Doubly Occupied:

       1A    -19.206726     2A    -14.469427     3A    -14.465918
       4A    -10.379323     5A    -10.364938     6A    -10.340012
       7A    -10.317808     8A    -10.316967     9A    -10.305117
      10A    -10.304423    11A    -10.304051    12A    -10.303325
      13A    -10.302394    14A    -10.295112    15A    -10.294844
      16A    -10.293211    17A    -10.292868    18A    -10.290264
      19A    -10.284440    20A    -10.279980    21A     -1.124447
      22A     -1.069976    23A     -1.049240    24A     -0.979842
      25A     -0.962279    26A     -0.909629    27A     -0.872940
      28A     -0.863702    29A     -0.855659    30A     -0.853490
      31A     -0.813786    32A     -0.768817    33A     -0.725922
      34A     -0.721850    35A     -0.713874    36A     -0.695317
      37A     -0.680165    38A     -0.664871    39A     -0.636806
      40A     -0.617606    41A     -0.599384    42A     -0.582346
      43A     -0.582085    44A     -0.562482    45A     -0.554069
      46A     -0.541302    47A     -0.533797    48A     -0.526152
      49A     -0.521455    50A     -0.516625    51A     -0.514224
      52A     -0.510692    53A     -0.498263    54A     -0.482081
      55A     -0.479074    56A     -0.474330    57A     -0.450802
      58A     -0.448862    59A     -0.444706    60A     -0.439660
      61A     -0.429189    62A     -0.406211    63A     -0.365931
      64A     -0.346608    65A     -0.343371    66A     -0.337778
      67A     -0.332172    68A     -0.309166    69A     -0.259948

  @DF-RKS Final Energy:  -840.87269778790767

   => Energetics <=

    Nuclear Repulsion Energy =           1426.6021971093648517
    One-Electron Energy =               -3971.9864402304956457
    Two-Electron Energy =                1787.2217143283478435
    DFT Exchange-Correlation Energy =     -82.6857352111338031
    Empirical Dispersion Energy =          -0.0244337839911412
    VV10 Nonlocal Energy =                  0.0000000000000000
    Total Energy =                       -840.8726977879076685

  Dipole Moment: [D]
     X:    -1.1841      Y:     2.3376      Z:    -2.0552     Total:     3.3302

*** Psi4 exiting successfully. Buy a developer a beer!
