                               Psi4 1.5 release

  ==> Input File <==

--------------------------------------------------------------------------
molecule {
0 1
 C   -0.591281   -0.242651    0.322701
 N    0.633031   -0.896436    0.401133
 C    1.894109   -0.601730   -0.178598
 C    2.776982   -1.671542   -0.475923
 H    0.669949   -1.572236    1.189214
 C    2.326240    0.729495   -0.410751
 C   -1.597767   -0.577124    1.240125
 N   -2.589391   -1.530611    3.054332
 C   -2.995403   -0.208274    1.274116
 C   -1.383318   -1.469602    2.400569
 C   -3.552638   -0.782852    2.374604
 C   -0.809081    0.799442   -0.720581
 C   -1.339275    2.069555   -0.375146
 C   -0.555749    0.512705   -2.087531
 C   -1.583933    3.029755   -1.365345
 C   -0.799637    1.478476   -3.072574
 C   -1.313591    2.742426   -2.718582
 C    4.039636   -1.414761   -1.027210
 C    3.589592    0.975125   -0.965966
 C    4.454794   -0.091973   -1.281188
 H    2.471552   -2.701773   -0.279525
 H    1.683080    1.573535   -0.158427
 H   -2.717771   -2.067475    3.899480
 O   -0.332674   -2.071404    2.738927
 H   -1.550663    2.298934    0.671141
 H   -0.169311   -0.468405   -2.370341
 H   -1.985244    4.005012   -1.084671
 H   -0.591781    1.248763   -4.118982
 H   -1.503373    3.493083   -3.487997
 H    4.701348   -2.251029   -1.259375
 H    3.900338    2.004728   -1.151685
 H   -3.516615    0.414012    0.559911
 H   -4.566413   -0.733977    2.746792
 H    5.437418    0.104151   -1.713759
}
set optking {
  frozen_dihedral = ("
    2 1 12 13
    7 1 2 3
    1 2 3 4
  ")
}
set {
  geom_maxiter 400
  g_convergence GAU_LOOSE
  dynamic_level 1
}
memory 8.166666666666666GB
set_num_threads(2)
psi4_io.set_default_path("/scratch/bdw2292/Psi4-1_16_Index_0-farH_in17")
for _ in range(1):
  try:
    set opt_coordinates both
    optimize('wb97x-d/6-311G')
    break
  except OptimizationConvergenceError:
    break
  else:
    try:
      set opt_coordinates cartesian
      optimize('wb97x-d/6-311G')
      break
    except OptimizationConvergenceError:
      pass
clean()
--------------------------------------------------------------------------

    Molecular point group: c1
  Charge       = 0
  Multiplicity = 1
  Basis Set: 6-311G
    Blend: 6-311G
  Basis Set: (6-311G AUX)
    Blend: CC-PVTZ-JKFIT
  @DF-RKS Final Energy:  -840.64845575932122
    Total Energy =                       -840.6484557593212230
    Molecular point group: c1
  Basis Set: 6-311G
    Blend: 6-311G
  Basis Set: (6-311G AUX)
    Blend: CC-PVTZ-JKFIT
  Basis Set: 6-311G
    Blend: 6-311G
  Basis Set: (6-311G AUX)
    Blend: CC-PVTZ-JKFIT
  @DF-RKS Final Energy:  -840.65550939614502
    Total Energy =                       -840.6555093961450211
  Basis Set: 6-311G
    Blend: 6-311G
  Basis Set: (6-311G AUX)
    Blend: CC-PVTZ-JKFIT
  Basis Set: 6-311G
    Blend: 6-311G
  @DF-RKS Final Energy:  -840.65595539666526
    Total Energy =                       -840.6559553966651492
  @DF-RKS Final Energy:  -840.65597142173192
    Total Energy =                       -840.6559714217319197
  @DF-RKS Final Energy:  -840.65613496012804
    Total Energy =                       -840.6561349601279289
  Basis Set: (6-311G AUX)
    Blend: CC-PVTZ-JKFIT
  Basis Set: 6-311G
    Blend: 6-311G
  Basis Set: (6-311G AUX)
    Blend: CC-PVTZ-JKFIT
  @DF-RKS Final Energy:  -840.65613842224582
    Total Energy =                       -840.6561384222458173
  Basis Set: 6-311G
    Blend: 6-311G
  Basis Set: (6-311G AUX)
    Blend: CC-PVTZ-JKFIT
  Charge       = 0
  Multiplicity = 1
  Basis Set: 6-311G
    Blend: 6-311G
  Basis Set: (6-311G AUX)
    Blend: CC-PVTZ-JKFIT

    Orbital Energies [Eh]
    ---------------------

    Doubly Occupied:

       1A    -19.206384     2A    -14.470647     3A    -14.466912
       4A    -10.386871     5A    -10.369358     6A    -10.344682
       7A    -10.320762     8A    -10.319256     9A    -10.306993
      10A    -10.306135    11A    -10.305684    12A    -10.305081
      13A    -10.304132    14A    -10.297032    15A    -10.296811
      16A    -10.295440    17A    -10.295196    18A    -10.292374
      19A    -10.289247    20A    -10.281511    21A     -1.137496
      22A     -1.074027    23A     -1.056861    24A     -0.984471
      25A     -0.967665    26A     -0.913148    27A     -0.876470
      28A     -0.866924    29A     -0.859120    30A     -0.857892
      31A     -0.818058    32A     -0.772526    33A     -0.729434
      34A     -0.724841    35A     -0.716662    36A     -0.698101
      37A     -0.682489    38A     -0.668006    39A     -0.640811
      40A     -0.620212    41A     -0.599925    42A     -0.585353
      43A     -0.582766    44A     -0.566517    45A     -0.555316
      46A     -0.545667    47A     -0.536305    48A     -0.529147
      49A     -0.524212    50A     -0.519844    51A     -0.516771
      52A     -0.512129    53A     -0.497196    54A     -0.482214
      55A     -0.480234    56A     -0.474976    57A     -0.451412
      58A     -0.449511    59A     -0.445131    60A     -0.439645
      61A     -0.429382    62A     -0.404339    63A     -0.365743
      64A     -0.346662    65A     -0.342715    66A     -0.334539
      67A     -0.331599    68A     -0.307716    69A     -0.256772

  @DF-RKS Final Energy:  -840.65615732153674

   => Energetics <=

    Nuclear Repulsion Energy =           1426.6021532993900109
    One-Electron Energy =               -3971.2506279400595304
    Two-Electron Energy =                1786.6923237859532492
    DFT Exchange-Correlation Energy =     -82.6755726828700972
    Empirical Dispersion Energy =          -0.0244337839503588
    VV10 Nonlocal Energy =                  0.0000000000000000
    Total Energy =                       -840.6561573215367389

  Dipole Moment: [D]
     X:    -1.1706      Y:     2.3497      Z:    -2.0561     Total:     3.3345

    Molecular point group: c1
  Basis Set: 6-311G
    Blend: 6-311G
  Basis Set: (6-311G AUX)
    Blend: CC-PVTZ-JKFIT

  -Total Gradient:
     Atom            X                  Y                   Z
    ------   -----------------  -----------------  -----------------
       1       -0.000102942802    -0.000011299639     0.000299286629
       2       -0.000347384599    -0.000993891542    -0.001376751621
       3        0.000029308072     0.000431043114     0.000344387811
       4        0.000127883173     0.000079395201     0.000215202822
       5       -0.000043900356     0.000073792680     0.000014218391
       6       -0.000223048232    -0.000026271037     0.000059986174
       7        0.000132898801     0.000307894642     0.000365448959
       8       -0.000304315825     0.000137634717    -0.000158689665
       9       -0.000082984651     0.000428134641    -0.000117513567
      10        0.001043230437    -0.000517841501     0.000268841521
      11        0.000136170778    -0.000186520480     0.000119019265
      12        0.000302237267     0.000296795293     0.000047857240
      13       -0.000227029119    -0.000161791784    -0.000104473089
      14        0.000040050762    -0.000018900976     0.000041683781
      15        0.000043241891    -0.000048186887     0.000062975647
      16       -0.000066337263     0.000052743816    -0.000023682796
      17        0.000070531883    -0.000030304787    -0.000058519448
      18       -0.000074760415     0.000014103310     0.000047360020
      19        0.000001100824    -0.000061455355    -0.000027161985
      20       -0.000008171534     0.000028239206     0.000014647516
      21       -0.000000110301    -0.000035529453     0.000029837680
      22        0.000081155562     0.000013938002     0.000019450670
      23       -0.000053016995    -0.000059598841     0.000039784213
      24       -0.000488584477     0.000319761797     0.000056807756
      25       -0.000111033437    -0.000017309205     0.000057921997
      26        0.000003587919    -0.000015822591    -0.000021664513
      27       -0.000027936828     0.000037959033     0.000009744598
      28        0.000020858588     0.000005083827    -0.000060127973
      29       -0.000011026695     0.000029363271    -0.000040097100
      30        0.000010850652    -0.000018111748    -0.000019480432
      31        0.000018184001     0.000031721701    -0.000000088764
      32       -0.000021152942     0.000144489993    -0.000082655301
      33       -0.000062056241     0.000036875495     0.000023360540
      34        0.000023136290     0.000000748975    -0.000011335297

  **** Optimization is complete! (in 7 steps) ****
    Final optimized geometry and variables:
    Molecular point group: c1

    Geometry (in Angstrom), charge = 0, multiplicity = 1:

    C           -0.571223639738    -0.220429542709     0.372300728922
    N            0.609735313840    -0.899145856536     0.426446332111
    C            1.850548312160    -0.568155073410    -0.169157029708
    C            2.701868488651    -1.620461706821    -0.521697834675
    H            0.617598942353    -1.653469729044     1.118257486160
    C            2.271024538482     0.751276228643    -0.360961412515
    C           -1.570769964578    -0.548212794154     1.261894947645
    N           -2.598133460813    -1.620380819833     2.967196496140
    C           -2.942892855194    -0.070382706837     1.369527314908
    C           -1.395028943359    -1.563039984859     2.297651125708
    C           -3.523481022315    -0.725772841957     2.399756880443
    C           -0.785573503713     0.797297476501    -0.687962290427
    C           -1.253631285749     2.074110248077    -0.364148005209
    C           -0.536523001149     0.475494485868    -2.026779865266
    C           -1.464517208732     3.018420527611    -1.365944616127
    C           -0.755780686421     1.417467057994    -3.025593606688
    C           -1.217074451395     2.691846652579    -2.697584378607
    C            3.951638670248    -1.356776227911    -1.071812884677
    C            3.514997816519     1.005899244159    -0.930482263624
    C            4.360743673800    -0.042137266019    -1.288612173232
    H            2.373449926628    -2.639428705977    -0.365063017833
    H            1.637176559088     1.571818637603    -0.061072857209
    H           -2.767474993989    -2.245517891454     3.731005751403
    O           -0.381145942852    -2.277113694205     2.543266917126
    H           -1.437044517495     2.325752663856     0.671677677601
    H           -0.170071013507    -0.510198293064    -2.278794071188
    H           -1.819485632407     4.006391620130    -1.106088786198
    H           -0.565530602254     1.158580916454    -4.058043418958
    H           -1.382352261817     3.424837750620    -3.475398772396
    H            4.601918727889    -2.179419432130    -1.336348894850
    H            3.828124346701     2.030336209823    -1.079518917106
    H           -3.413407505015     0.660639010653     0.736503040417
    H           -4.521801671460    -0.649883101261     2.791289269116
    H            5.329006996847     0.162842288651    -1.723553743897

*** Psi4 exiting successfully. Buy a developer a beer!
