                               Psi4 1.5 release

  ==> Input File <==

--------------------------------------------------------------------------
molecule {
0 1
 C   -0.544754   -0.098290    0.459346
 N    0.753902   -0.480125    0.775681
 C    1.995841   -0.213862    0.143017
 C    2.233536    0.971611   -0.599461
 H    0.837087   -0.824360    1.752246
 C    3.019807   -1.192738    0.219849
 C   -1.548915   -0.245272    1.427157
 N   -2.507856   -0.660071    3.449904
 C   -2.983800   -0.104277    1.317520
 C   -1.283825   -0.640367    2.828306
 C   -3.522196   -0.345777    2.543760
 C   -0.846809    0.451985   -0.892182
 C   -1.574556    1.661516   -1.034809
 C   -0.473321   -0.263949   -2.059719
 C   -1.896431    2.150292   -2.307467
 C   -0.797133    0.230750   -3.329717
 C   -1.508932    1.440298   -3.461965
 C    3.462433    1.166190   -1.245180
 C    4.245007   -0.987637   -0.428887
 C    4.476785    0.190777   -1.166483
 H    1.468174    1.745610   -0.669775
 H    2.854716   -2.112211    0.786223
 H   -2.611853   -0.888865    4.427674
 O   -0.182046   -0.918397    3.366322
 H   -1.877935    2.215044   -0.144081
 H    0.068507   -1.206921   -1.964068
 H   -2.449678    3.086205   -2.402855
 H   -0.498378   -0.325197   -4.220151
 H   -1.761032    1.823479   -4.452402
 H    3.629355    2.083638   -1.812246
 H    5.021066   -1.751785   -0.358767
 H   -3.541741    0.149266    0.426705
 H   -4.553786   -0.328412    2.866327
 H    5.431920    0.347197   -1.670935
}
set optking {
  frozen_dihedral = ("
    1 2 3 4
    2 1 12 13
    7 1 2 3
  ")
}
set {
  geom_maxiter 400
  g_convergence GAU_LOOSE
  dynamic_level 1
}
memory 8.166666666666666GB
set_num_threads(2)
psi4_io.set_default_path("/scratch/bdw2292/Psi4-1_16_Index_0-farH_in17")
for _ in range(1):
  try:
    set opt_coordinates both
    optimize('wb97x-d/6-311G')
    break
  except OptimizationConvergenceError:
    break
  else:
    try:
      set opt_coordinates cartesian
      optimize('wb97x-d/6-311G')
      break
    except OptimizationConvergenceError:
      pass
clean()
--------------------------------------------------------------------------

    Molecular point group: c1
  Charge       = 0
  Multiplicity = 1
  Basis Set: 6-311G
    Blend: 6-311G
  Basis Set: (6-311G AUX)
    Blend: CC-PVTZ-JKFIT
  @DF-RKS Final Energy:  -840.64840529102366
    Total Energy =                       -840.6484052910236642
    Molecular point group: c1
  Basis Set: 6-311G
    Blend: 6-311G
  Basis Set: (6-311G AUX)
    Blend: CC-PVTZ-JKFIT
  Basis Set: 6-311G
    Blend: 6-311G
  Basis Set: (6-311G AUX)
    Blend: CC-PVTZ-JKFIT
  @DF-RKS Final Energy:  -840.65518062606327
    Total Energy =                       -840.6551806260632702
  Basis Set: 6-311G
    Blend: 6-311G
  Basis Set: (6-311G AUX)
    Blend: CC-PVTZ-JKFIT
  Basis Set: 6-311G
    Blend: 6-311G
  @DF-RKS Final Energy:  -840.65589768917494
    Total Energy =                       -840.6558976891749353
  @DF-RKS Final Energy:  -840.65585250834863
    Total Energy =                       -840.6558525083486302
  @DF-RKS Final Energy:  -840.65608382172184
    Total Energy =                       -840.6560838217217224
  Basis Set: (6-311G AUX)
    Blend: CC-PVTZ-JKFIT
  Basis Set: 6-311G
    Blend: 6-311G
  Basis Set: (6-311G AUX)
    Blend: CC-PVTZ-JKFIT
  @DF-RKS Final Energy:  -840.65608888376300
    Total Energy =                       -840.6560888837630046
  Basis Set: 6-311G
    Blend: 6-311G
  Basis Set: (6-311G AUX)
    Blend: CC-PVTZ-JKFIT
  Charge       = 0
  Multiplicity = 1
  Basis Set: 6-311G
    Blend: 6-311G
  Basis Set: (6-311G AUX)
    Blend: CC-PVTZ-JKFIT

    Orbital Energies [Eh]
    ---------------------

    Doubly Occupied:

       1A    -19.206721     2A    -14.471125     3A    -14.467146
       4A    -10.387151     5A    -10.369605     6A    -10.344990
       7A    -10.320922     8A    -10.319479     9A    -10.307196
      10A    -10.306341    11A    -10.305916    12A    -10.305310
      13A    -10.304371    14A    -10.296711    15A    -10.296549
      16A    -10.295087    17A    -10.294856    18A    -10.291861
      19A    -10.289570    20A    -10.281685    21A     -1.137937
      22A     -1.074345    23A     -1.057175    24A     -0.984760
      25A     -0.967522    26A     -0.913443    27A     -0.876747
      28A     -0.867172    29A     -0.858810    30A     -0.857964
      31A     -0.818123    32A     -0.772825    33A     -0.729614
      34A     -0.725229    35A     -0.716496    36A     -0.698209
      37A     -0.682640    38A     -0.667901    39A     -0.640949
      40A     -0.620105    41A     -0.600111    42A     -0.585585
      43A     -0.582877    44A     -0.566573    45A     -0.555381
      46A     -0.545007    47A     -0.536195    48A     -0.529429
      49A     -0.524459    50A     -0.519577    51A     -0.516907
      52A     -0.512305    53A     -0.497457    54A     -0.483398
      55A     -0.480423    56A     -0.475163    57A     -0.451370
      58A     -0.449513    59A     -0.445154    60A     -0.439378
      61A     -0.429662    62A     -0.404637    63A     -0.366149
      64A     -0.347122    65A     -0.342646    66A     -0.334647
      67A     -0.331640    68A     -0.307319    69A     -0.256699

  @DF-RKS Final Energy:  -840.65610879473911

   => Energetics <=

    Nuclear Repulsion Energy =           1426.1302272214381901
    One-Electron Energy =               -3970.2905650336424515
    Two-Electron Energy =                1786.2047990046751238
    DFT Exchange-Correlation Energy =     -82.6761514040015300
    Empirical Dispersion Energy =          -0.0244185832081443
    VV10 Nonlocal Energy =                  0.0000000000000000
    Total Energy =                       -840.6561087947389979

  Dipole Moment: [D]
     X:    -1.4154      Y:     1.4317      Z:    -2.6517     Total:     3.3294

    Molecular point group: c1
  Basis Set: 6-311G
    Blend: 6-311G
  Basis Set: (6-311G AUX)
    Blend: CC-PVTZ-JKFIT

  -Total Gradient:
     Atom            X                  Y                   Z
    ------   -----------------  -----------------  -----------------
       1        0.000007554319     0.000168996312     0.000369255583
       2       -0.000562767544    -0.001675170617    -0.001514600073
       3        0.000438767702     0.001039368903     0.001292855837
       4       -0.000413262063    -0.000255272164    -0.000378435057
       5       -0.000071221607     0.000039639118    -0.000038925319
       6       -0.000040842553     0.000104925481     0.000002676877
       7        0.000151080978     0.000349220955     0.000236908106
       8       -0.000446206890    -0.000027759250    -0.000125625381
       9       -0.000054941824     0.000350181887    -0.000356299467
      10        0.001255254380    -0.000271785614     0.000413573008
      11        0.000160956493    -0.000134440229     0.000384170458
      12        0.000363951655     0.000390637433    -0.000055164221
      13       -0.000194397357    -0.000283774235     0.000003052752
      14        0.000089119715     0.000027615518     0.000133385791
      15       -0.000011471866    -0.000068507054     0.000079864555
      16       -0.000120487984     0.000023681026    -0.000028499899
      17        0.000132883292    -0.000041665207    -0.000041252519
      18        0.000039997419    -0.000126551033    -0.000075891181
      19       -0.000071314940    -0.000006634908    -0.000078553867
      20        0.000031971298     0.000091472521     0.000076088970
      21        0.000040666620     0.000026460962     0.000016172675
      22       -0.000002685795    -0.000008224483     0.000030493043
      23       -0.000072706541    -0.000047790740     0.000033671459
      24       -0.000723824057     0.000395087838    -0.000197125950
      25       -0.000071643207     0.000012746551     0.000066165943
      26        0.000003436156    -0.000035366800    -0.000017896421
      27       -0.000032331566     0.000045125984     0.000008146326
      28        0.000014189621    -0.000022208543    -0.000052388061
      29       -0.000020632216     0.000003371811    -0.000044433631
      30        0.000012564487     0.000026196939    -0.000012587174
      31        0.000025928436    -0.000022012043    -0.000007221430
      32       -0.000013039879     0.000062129214    -0.000091843173
      33       -0.000051058053     0.000031036113     0.000035707891
      34        0.000009093430    -0.000001071472    -0.000005416783

  **** Optimization is complete! (in 7 steps) ****
    Final optimized geometry and variables:
    Molecular point group: c1

    Geometry (in Angstrom), charge = 0, multiplicity = 1:

    C           -0.553159942793    -0.143951686705     0.425007994072
    N            0.690389014081    -0.642607332597     0.675403965894
    C            1.907796947530    -0.390923265744    -0.000369549321
    C            2.187179725767     0.815460130943    -0.649703693171
    H            0.758540317676    -1.137587234775     1.568864723492
    C            2.882087646789    -1.394598060928     0.034848910929
    C           -1.532430922430    -0.282865459464     1.384264267705
    N           -2.480191021660    -0.874951145461     3.350399780637
    C           -2.949410142335     0.054532592159     1.352954509312
    C           -1.274767200891    -0.899512705741     2.682983614307
    C           -3.481189732123    -0.305656377448     2.542857230828
    C           -0.852508174238     0.461065797668    -0.897551492321
    C           -1.458781448961     1.717588620183    -0.983477200017
    C           -0.548081172833    -0.237581054823    -2.071010613818
    C           -1.752043336179     2.270666911030    -2.227626774507
    C           -0.849138062491     0.313507321879    -3.311431315579
    C           -1.448522665571     1.569969045150    -3.392965220478
    C            3.417046188343     0.995994061823    -1.276025920380
    C            4.114856339133    -1.198238504656    -0.577459484302
    C            4.386028743561    -0.004681629362    -1.244334400140
    H            1.457743913750     1.610658010846    -0.658659505699
    H            2.661780017587    -2.325294164490     0.540839694347
    H           -2.600185672698    -1.246034343170     4.272736620348
    O           -0.197162842017    -1.388269362187     3.127474594764
    H           -1.685131160459     2.261385569587    -0.076329302399
    H           -0.075083515775    -1.207903511107    -2.006289989803
    H           -2.214650695350     3.246508079038    -2.285488893225
    H           -0.615255243614    -0.235482455351    -4.213131302205
    H           -1.677809943192     1.999071806127    -4.358815285194
    H            3.620888105176     1.931983243217    -1.778160966975
    H            4.860129468566    -1.980893186743    -0.537562066626
    H           -3.479812969586     0.497048427072     0.528832708563
    H           -4.490591324967    -0.218948918978     2.902382470160
    H            5.341646175684     0.145775585925    -1.726814978752

*** Psi4 exiting successfully. Buy a developer a beer!
