                               Psi4 1.5 release

  ==> Input File <==

--------------------------------------------------------------------------
molecule {
0 1
 C   -0.520683   -0.038810    0.228686
 N    0.550630   -0.913590    0.107380
 C    1.831222   -0.888979   -0.502591
 C    2.367534   -2.113675   -0.986784
 H    0.479938   -1.670702    0.804492
 C    2.720158    0.204762   -0.338536
 C   -1.433843   -0.392447    1.214354
 N   -2.426075   -0.355366    3.242001
 C   -2.519888   -1.341015    1.213484
 C   -1.389870    0.227620    2.549066
 C   -3.099393   -1.284922    2.443365
 C   -0.856886    1.091454   -0.712136
 C   -2.229284    1.296650   -1.050064
 C    0.086223    2.000469   -1.264549
 C   -2.626587    2.337116   -1.899766
 C   -0.316031    3.039479   -2.117035
 C   -1.672689    3.215719   -2.441419
 C    3.685528   -2.180082   -1.459210
 C    4.034657    0.136759   -0.821124
 C    4.524321   -1.050160   -1.400130
 H    1.739742   -3.007477   -1.021030
 H    2.401532    1.099998    0.196719
 H   -2.629946   -0.107555    4.199211
 O   -0.601328    1.083082    3.002895
 H   -2.996451    0.632332   -0.649132
 H    1.140518    1.919213   -1.041685
 H   -3.683346    2.463493   -2.142141
 H    0.433287    3.717254   -2.530357
 H   -1.981637    4.025854   -3.104454
 H    4.057853   -3.118532   -1.873883
 H    4.682480    1.010597   -0.731937
 H   -2.824627   -1.977222    0.394520
 H   -3.940217   -1.836405    2.840465
 H    5.546316   -1.099569   -1.779784
}
set optking {
  frozen_dihedral = ("
    2 1 12 13
    7 1 2 3
    1 2 3 4
  ")
}
set {
  geom_maxiter 400
  g_convergence GAU_LOOSE
  dynamic_level 1
}
memory 8.166666666666666GB
set_num_threads(2)
psi4_io.set_default_path("/scratch/bdw2292/Psi4-1_16_Index_0-farH_in17")
for _ in range(1):
  try:
    set opt_coordinates both
    optimize('wb97x-d/6-311G')
    break
  except OptimizationConvergenceError:
    break
  else:
    try:
      set opt_coordinates cartesian
      optimize('wb97x-d/6-311G')
      break
    except OptimizationConvergenceError:
      pass
clean()
--------------------------------------------------------------------------

    Molecular point group: c1
  Charge       = 0
  Multiplicity = 1
  Basis Set: 6-311G
    Blend: 6-311G
  Basis Set: (6-311G AUX)
    Blend: CC-PVTZ-JKFIT
  @DF-RKS Final Energy:  -840.55291647336367
    Total Energy =                       -840.5529164733636662
    Molecular point group: c1
  Basis Set: 6-311G
    Blend: 6-311G
  Basis Set: (6-311G AUX)
    Blend: CC-PVTZ-JKFIT
  Basis Set: 6-311G
    Blend: 6-311G
  Basis Set: (6-311G AUX)
    Blend: CC-PVTZ-JKFIT
  @DF-RKS Final Energy:  -840.57409008830439
    Total Energy =                       -840.5740900883045015
  Basis Set: 6-311G
    Blend: 6-311G
  Basis Set: (6-311G AUX)
    Blend: CC-PVTZ-JKFIT
  Basis Set: 6-311G
    Blend: 6-311G
  @DF-RKS Final Energy:  -840.48123959290706
    Total Energy =                       -840.4812395929070590
  @DF-RKS Final Energy:  -840.54528667960801
    Total Energy =                       -840.5452866796080116
  @DF-RKS Final Energy:  -840.59670377371162
    Total Energy =                       -840.5967037737115106
  @DF-RKS Final Energy:  -840.59764093741785
    Total Energy =                       -840.5976409374177365
  @DF-RKS Final Energy:  -840.60933722738810
    Total Energy =                       -840.6093372273879822
  @DF-RKS Final Energy:  -840.61278970346177
    Total Energy =                       -840.6127897034617718
  @DF-RKS Final Energy:  -840.61379121229095
    Total Energy =                       -840.6137912122908347
  @DF-RKS Final Energy:  -840.61378588951527
    Total Energy =                       -840.6137858895152704
  @DF-RKS Final Energy:  -840.61379117957028
    Total Energy =                       -840.6137911795701712
  @DF-RKS Final Energy:  -840.61383199574732
    Total Energy =                       -840.6138319957473186
  @DF-RKS Final Energy:  -840.61402069073370
    Total Energy =                       -840.6140206907338097
  Basis Set: (6-311G AUX)
    Blend: CC-PVTZ-JKFIT
  Basis Set: 6-311G
    Blend: 6-311G
  Basis Set: (6-311G AUX)
    Blend: CC-PVTZ-JKFIT
  @DF-RKS Final Energy:  -840.61410318677292
    Total Energy =                       -840.6141031867730362
  Basis Set: 6-311G
    Blend: 6-311G
  Basis Set: (6-311G AUX)
    Blend: CC-PVTZ-JKFIT
  Charge       = 0
  Multiplicity = 1
  Basis Set: 6-311G
    Blend: 6-311G
  Basis Set: (6-311G AUX)
    Blend: CC-PVTZ-JKFIT

    Orbital Energies [Eh]
    ---------------------

    Doubly Occupied:

       1A    -19.192137     2A    -14.480624     3A    -14.460527
       4A    -10.384782     5A    -10.374270     6A    -10.357532
       7A    -10.324289     8A    -10.312511     9A    -10.308411
      10A    -10.308166    11A    -10.307830    12A    -10.307470
      13A    -10.304099    14A    -10.293732    15A    -10.291842
      16A    -10.291367    17A    -10.289798    18A    -10.289010
      19A    -10.285497    20A    -10.283837    21A     -1.131040
      22A     -1.078542    23A     -1.051687    24A     -0.982345
      25A     -0.966950    26A     -0.913350    27A     -0.873418
      28A     -0.869255    29A     -0.859516    30A     -0.851571
      31A     -0.818494    32A     -0.772333    33A     -0.732571
      34A     -0.728906    35A     -0.708086    36A     -0.694052
      37A     -0.685232    38A     -0.663328    39A     -0.648844
      40A     -0.616904    41A     -0.600534    42A     -0.596928
      43A     -0.575854    44A     -0.561722    45A     -0.550814
      46A     -0.547938    47A     -0.537371    48A     -0.528355
      49A     -0.526375    50A     -0.520523    51A     -0.515434
      52A     -0.508640    53A     -0.491331    54A     -0.485158
      55A     -0.476382    56A     -0.462358    57A     -0.459617
      58A     -0.453170    59A     -0.437536    60A     -0.432651
      61A     -0.424033    62A     -0.399225    63A     -0.362519
      64A     -0.348311    65A     -0.335976    66A     -0.330916
      67A     -0.319515    68A     -0.307533    69A     -0.252779

  @DF-RKS Final Energy:  -840.61411808486923

   => Energetics <=

    Nuclear Repulsion Energy =           1410.4183248401964192
    One-Electron Energy =               -3938.9988913650108771
    Two-Electron Energy =                1770.6546103602154290
    DFT Exchange-Correlation Energy =     -82.6646859947428680
    Empirical Dispersion Energy =          -0.0234759255273097
    VV10 Nonlocal Energy =                  0.0000000000000000
    Total Energy =                       -840.6141180848692329

  Dipole Moment: [D]
     X:     2.2605      Y:    -1.3454      Z:    -3.3889     Total:     4.2901

    Molecular point group: c1
  Basis Set: 6-311G
    Blend: 6-311G
  Basis Set: (6-311G AUX)
    Blend: CC-PVTZ-JKFIT

  -Total Gradient:
     Atom            X                  Y                   Z
    ------   -----------------  -----------------  -----------------
       1        0.006049116758    -0.004340017897     0.007831672827
       2       -0.000369519697     0.000680303420    -0.002415829559
       3       -0.009054999855     0.009205638076    -0.002973358227
       4        0.006930603529    -0.006703251374     0.002290782020
       5        0.000098777561     0.000019822775    -0.000028673693
       6        0.000048387780     0.000160467187    -0.000045809574
       7       -0.004503271805     0.000582111167    -0.004351465221
       8       -0.000016385633     0.000052947597    -0.000041377483
       9       -0.000387453456    -0.000001474381     0.000145969153
      10       -0.000330409520     0.000126429515    -0.000359920190
      11        0.000225677918     0.000033999714     0.000141155627
      12        0.000412422757     0.001499209264    -0.005641739870
      13        0.001323653728    -0.000664911100     0.005268217532
      14       -0.000114623733    -0.000074583821     0.000251258494
      15        0.000023770731     0.000152445811    -0.000086159351
      16       -0.000139964313     0.000012368502    -0.000017378099
      17        0.000019013564    -0.000085400693    -0.000045148125
      18       -0.000231517559    -0.000219176713    -0.000029145314
      19       -0.000039222947     0.000005080201     0.000030183418
      20        0.000062176044     0.000001862391     0.000154970934
      21       -0.000007192600    -0.000059489260    -0.000079762423
      22        0.000142218123     0.000001178778    -0.000050022646
      23        0.000035433413    -0.000038534145    -0.000119827605
      24        0.000165950647    -0.000209311370    -0.000390427075
      25       -0.000040322069    -0.000343763922     0.000063113981
      26       -0.000123761714    -0.000059967794     0.000005323504
      27        0.000006998742     0.000039137779     0.000026564616
      28       -0.000028973055     0.000020700559    -0.000028405115
      29       -0.000023195344     0.000040839699     0.000043035093
      30       -0.000018209417    -0.000058296977    -0.000048689162
      31        0.000006149150    -0.000000333255     0.000084217234
      32       -0.000124764193     0.000028577638     0.000157142612
      33       -0.000060361380    -0.000023577917     0.000027465829
      34       -0.000041549923    -0.000012366022     0.000018864133

  **** Optimization is complete! (in 5 steps) ****
    Final optimized geometry and variables:
    Molecular point group: c1

    Geometry (in Angstrom), charge = 0, multiplicity = 1:

    C           -0.285400623445    -0.511238311200     0.110602093032
    N            0.620953350944    -0.728531704288    -0.912628392615
    C            1.636766192320     0.044847765524    -1.541652594098
    C            1.887333627593    -0.215456186480    -2.894258527953
    H            0.714474830821    -1.703380064433    -1.142503450376
    C            2.578393247915     0.786700024115    -0.819954168116
    C           -0.882040157495    -1.642196882733     0.640398209569
    N           -1.802896287647    -3.120809274632     2.106983295657
    C           -0.736659720150    -3.012632486092     0.142397289424
    C           -1.585813899899    -1.753836504950     1.939488193180
    C           -1.310851340545    -3.853184574169     1.028675619948
    C           -0.785583437935     0.858561585826     0.441435093662
    C           -2.156378246378     0.972505952329     0.735040513097
    C           -0.022235015028     2.033383441173     0.487574387858
    C           -2.735556590474     2.193882393924     1.046001967985
    C           -0.602683276746     3.260712546705     0.797690769835
    C           -1.960260170479     3.349147003878     1.081131064946
    C            2.975182279260     0.362929463859    -3.539286950382
    C            3.655931770547     1.380746389033    -1.470070227509
    C            3.853283249139     1.183565988495    -2.834751394969
    H            1.198117577201    -0.843359951746    -3.444126221798
    H            2.505790765066     0.845004185904     0.255268499825
    H           -2.248508928182    -3.486902230437     2.925315450851
    O           -1.901817364853    -0.908203698908     2.799778349739
    H           -2.780231826398     0.095709014640     0.688948023569
    H            1.030977756684     2.022723363102     0.292194540793
    H           -3.792995234329     2.238185019132     1.265355045311
    H            0.017671488478     4.146134466514     0.822508409272
    H           -2.407729344949     4.302933773344     1.325870618193
    H            3.137103822791     0.168425496686    -4.590546138505
    H            4.364402993318     1.963440045446    -0.897248692435
    H           -0.337550811327    -3.325048798924    -0.808570718373
    H           -1.444831742241    -4.919031809585     0.975104058267
    H            4.696007262603     1.638566200624    -3.335608661628

*** Psi4 exiting successfully. Buy a developer a beer!
