                               Psi4 1.5 release

  ==> Input File <==

--------------------------------------------------------------------------
molecule {
0 1
 C   -0.622173   -0.347573    0.201938
 N    0.542458   -1.098289    0.120795
 C    1.805504   -0.760811   -0.421259
 C    2.775694   -0.134651    0.398105
 H    0.528509   -1.945259    0.721685
 C    2.135407   -1.097688   -1.756223
 C   -1.646747   -0.787492    1.053171
 N   -2.706143   -2.030383    2.640552
 C   -3.006157   -0.318802    1.204030
 C   -1.502789   -1.926798    1.987092
 C   -3.604226   -1.072285    2.166630
 C   -0.721260    0.946654   -0.536232
 C   -1.156618    2.122651    0.130933
 C   -0.492474    1.009318   -1.935872
 C   -1.308584    3.326419   -0.569843
 C   -0.641279    2.216528   -2.631105
 C   -1.045750    3.383335   -1.952999
 C    4.034851    0.188268   -0.125941
 C    3.397096   -0.770139   -2.271703
 C    4.354214   -0.120856   -1.464496
 H    2.540612    0.102621    1.437829
 H    1.408729   -1.615682   -2.385245
 H   -2.876379   -2.728284    3.350009
 O   -0.505151   -2.671352    2.163498
 H   -1.364481    2.089126    1.202101
 H   -0.208070    0.108552   -2.478995
 H   -1.632234    4.223994   -0.039961
 H   -0.447689    2.249826   -3.704775
 H   -1.159273    4.323126   -2.496506
 H    4.769569    0.682143    0.512263
 H    3.635525   -1.024490   -3.305938
 H   -3.475078    0.488224    0.658072
 H   -4.606907   -1.020604    2.567419
 H    5.334448    0.135996   -1.870142
}
set optking {
  frozen_dihedral = ("
    1 2 3 4
    2 1 12 13
    7 1 2 3
  ")
}
set {
  geom_maxiter 400
  g_convergence GAU_LOOSE
  dynamic_level 1
}
memory 8.166666666666666GB
set_num_threads(2)
psi4_io.set_default_path("/scratch/bdw2292/Psi4-1_16_Index_0-farH_in17")
for _ in range(1):
  try:
    set opt_coordinates both
    optimize('wb97x-d/6-311G')
    break
  except OptimizationConvergenceError:
    break
  else:
    try:
      set opt_coordinates cartesian
      optimize('wb97x-d/6-311G')
      break
    except OptimizationConvergenceError:
      pass
clean()
--------------------------------------------------------------------------

    Molecular point group: c1
  Charge       = 0
  Multiplicity = 1
  Basis Set: 6-311G
    Blend: 6-311G
  Basis Set: (6-311G AUX)
    Blend: CC-PVTZ-JKFIT
  @DF-RKS Final Energy:  -840.64303403723795
    Total Energy =                       -840.6430340372379533
    Molecular point group: c1
  Basis Set: 6-311G
    Blend: 6-311G
  Basis Set: (6-311G AUX)
    Blend: CC-PVTZ-JKFIT
  Basis Set: 6-311G
    Blend: 6-311G
  Basis Set: (6-311G AUX)
    Blend: CC-PVTZ-JKFIT
  @DF-RKS Final Energy:  -840.64977659889325
    Total Energy =                       -840.6497765988932542
  Basis Set: 6-311G
    Blend: 6-311G
  Basis Set: (6-311G AUX)
    Blend: CC-PVTZ-JKFIT
  Basis Set: 6-311G
    Blend: 6-311G
  @DF-RKS Final Energy:  -840.65042793959560
    Total Energy =                       -840.6504279395954882
  @DF-RKS Final Energy:  -840.65040346004093
    Total Energy =                       -840.6504034600409341
  Basis Set: (6-311G AUX)
    Blend: CC-PVTZ-JKFIT
  Basis Set: 6-311G
    Blend: 6-311G
  Basis Set: (6-311G AUX)
    Blend: CC-PVTZ-JKFIT
  @DF-RKS Final Energy:  -840.65056026603338
    Total Energy =                       -840.6505602660334944
  Basis Set: 6-311G
    Blend: 6-311G
  Basis Set: (6-311G AUX)
    Blend: CC-PVTZ-JKFIT
  Charge       = 0
  Multiplicity = 1
  Basis Set: 6-311G
    Blend: 6-311G
  Basis Set: (6-311G AUX)
    Blend: CC-PVTZ-JKFIT

    Orbital Energies [Eh]
    ---------------------

    Doubly Occupied:

       1A    -19.200249     2A    -14.463269     3A    -14.462431
       4A    -10.380999     5A    -10.367194     6A    -10.342715
       7A    -10.318687     8A    -10.314036     9A    -10.305150
      10A    -10.303910    11A    -10.303341    12A    -10.302702
      13A    -10.302161    14A    -10.302158    15A    -10.301968
      16A    -10.301838    17A    -10.301136    18A    -10.300862
      19A    -10.282582    20A    -10.277479    21A     -1.131276
      22A     -1.067818    23A     -1.051479    24A     -0.982721
      25A     -0.970803    26A     -0.909325    27A     -0.872403
      28A     -0.865398    29A     -0.863380    30A     -0.858523
      31A     -0.815422    32A     -0.767929    33A     -0.726716
      34A     -0.724207    35A     -0.717178    36A     -0.695962
      37A     -0.679828    38A     -0.669490    39A     -0.641300
      40A     -0.619356    41A     -0.597177    42A     -0.583132
      43A     -0.580548    44A     -0.568317    45A     -0.558426
      46A     -0.548609    47A     -0.540943    48A     -0.527818
      49A     -0.522860    50A     -0.519632    51A     -0.514168
      52A     -0.508100    53A     -0.492582    54A     -0.479178
      55A     -0.472236    56A     -0.468139    57A     -0.454794
      58A     -0.452911    59A     -0.443634    60A     -0.439565
      61A     -0.423916    62A     -0.399115    63A     -0.350366
      64A     -0.344714    65A     -0.342019    66A     -0.339175
      67A     -0.325633    68A     -0.321343    69A     -0.255418

  @DF-RKS Final Energy:  -840.65056239685475

   => Energetics <=

    Nuclear Repulsion Energy =           1424.0905913841429538
    One-Electron Energy =               -3966.4190747344619012
    Two-Electron Energy =                1784.3727769540303143
    DFT Exchange-Correlation Energy =     -82.6707547809955656
    Empirical Dispersion Energy =          -0.0241012195705620
    VV10 Nonlocal Energy =                  0.0000000000000000
    Total Energy =                       -840.6505623968547525

  Dipole Moment: [D]
     X:    -0.0435      Y:     3.1025      Z:    -1.5545     Total:     3.4704

    Molecular point group: c1
  Basis Set: 6-311G
    Blend: 6-311G
  Basis Set: (6-311G AUX)
    Blend: CC-PVTZ-JKFIT

  -Total Gradient:
     Atom            X                  Y                   Z
    ------   -----------------  -----------------  -----------------
       1       -0.001080466323    -0.000873070326    -0.001858046823
       2        0.000242171935    -0.002210903366     0.002612716926
       3       -0.002042949548     0.005760516325    -0.001915113856
       4        0.001290434346    -0.003704640675     0.000972510083
       5       -0.000228859669     0.000326543587    -0.000546809364
       6       -0.000213856714    -0.000049932032    -0.000019192601
       7        0.000895026875     0.000950105629     0.002492381932
       8       -0.000296227581    -0.000252234809    -0.000062978394
       9       -0.000750738485     0.000150181664    -0.000659700999
      10        0.000530468556    -0.000651109674    -0.000740339454
      11        0.000512687193     0.000433643538     0.000355385847
      12        0.004015774531     0.000164869267    -0.000090044428
      13       -0.003138931501    -0.000671615142    -0.000547474654
      14        0.000114491096    -0.000270656958     0.000035086313
      15       -0.000012287231     0.000147490513    -0.000044145807
      16        0.000012467647     0.000114477976    -0.000086079477
      17       -0.000017235637     0.000033343518    -0.000028314214
      18        0.000025719466    -0.000006372633    -0.000008380901
      19        0.000023669375     0.000016931072    -0.000023304588
      20       -0.000017750503     0.000002200484     0.000031697686
      21       -0.000028252396     0.000022215427     0.000082522979
      22       -0.000040828269    -0.000037974073    -0.000010916138
      23       -0.000011052094     0.000003848323    -0.000072697484
      24        0.000066562562     0.000328388355     0.000515510093
      25        0.000034421109     0.000079822438     0.000041062326
      26        0.000015979658    -0.000046220453    -0.000019730507
      27       -0.000037076436     0.000104268751     0.000016474454
      28        0.000026967402     0.000016900936    -0.000109228645
      29       -0.000024894347     0.000105908497    -0.000104263759
      30        0.000072274863     0.000060760829     0.000040579121
      31        0.000049096296    -0.000021660745    -0.000063718989
      32       -0.000116911378    -0.000011193631    -0.000110986878
      33       -0.000042908953     0.000135646490     0.000129976287
      34        0.000098705398     0.000021991717    -0.000020072189

  **** Optimization is complete! (in 6 steps) ****
    Final optimized geometry and variables:
    Molecular point group: c1

    Geometry (in Angstrom), charge = 0, multiplicity = 1:

    C           -0.606035070502    -0.308246538221     0.245064410172
    N            0.508033212109    -1.084053649310     0.155947278106
    C            1.789339674527    -0.687408194665    -0.346461351213
    C            2.719966691494    -0.124585527255     0.526581574029
    H            0.452407869760    -1.957364274306     0.687358501277
    C            2.158581481464    -0.980673543788    -1.658602964848
    C           -1.661441388900    -0.743739558549     1.021929996788
    N           -2.807216433545    -2.065172843763     2.451757127647
    C           -2.993844784336    -0.188415301843     1.221635705539
    C           -1.589783878578    -1.965361815454     1.812672316697
    C           -3.646711728480    -0.996941362979     2.086845748568
    C           -0.663748133529     0.991365289128    -0.473827658214
    C           -1.055304928824     2.142126383928     0.221638565326
    C           -0.407041064240     1.083436631005    -1.846115844534
    C           -1.154076123727     3.365457830442    -0.434946840102
    C           -0.512483857496     2.306137847386    -2.502350842382
    C           -0.880605223632     3.450830231887    -1.798399125177
    C            3.996518375791     0.197662286300     0.071675734305
    C            3.435198360468    -0.659445561292    -2.112094776500
    C            4.353827102385    -0.063584284150    -1.249557257626
    H            2.430752346072     0.062645765101     1.551479882116
    H            1.448343667060    -1.472457269452    -2.308433509401
    H           -3.039025596858    -2.820262812744     3.067106203382
    O           -0.632711108081    -2.787626796769     1.921070346067
    H           -1.260944853496     2.074528014756     1.280855881948
    H           -0.146188204521     0.197552145872    -2.404165971678
    H           -1.443596852532     4.249023641199     0.117466487304
    H           -0.312701130634     2.363283360112    -3.563638440438
    H           -0.958253053693     4.400728245172    -2.309870707516
    H            4.711317478724     0.644796273297     0.748855224153
    H            3.715386063326    -0.884053806395    -3.132185725594
    H           -3.392877286096     0.693805405463     0.753540416028
    H           -4.645470242998    -0.926720851189     2.478489550552
    H            5.345646572958     0.184533900540    -1.602069738159

*** Psi4 exiting successfully. Buy a developer a beer!
