                               Psi4 1.5 release

  ==> Input File <==

--------------------------------------------------------------------------
molecule {
0 1
 C   -0.560373   -0.298381    0.358822
 N    0.690807   -0.860221    0.572439
 C    1.934671   -0.564701   -0.034611
 C    2.362017   -1.261508   -1.190207
 H    0.746158   -1.416125    1.448005
 C    2.742991    0.471137    0.492669
 C   -1.575046   -0.545216    1.293755
 N   -2.563543   -1.205151    3.234232
 C   -2.999008   -0.311197    1.210662
 C   -1.338659   -1.169506    2.613860
 C   -3.555225   -0.701501    2.389665
 C   -0.771929    0.641384   -0.782133
 C   -1.399278    1.896859   -0.563430
 C   -0.461906    0.264254   -2.115021
 C   -1.656159    2.763542   -1.633457
 C   -0.716464    1.136677   -3.181555
 C   -1.310124    2.393084   -2.948041
 C    3.568356   -0.914079   -1.813337
 C    3.949450    0.809105   -0.135337
 C    4.369997    0.123786   -1.294177
 H    1.754872   -2.074313   -1.593972
 H    2.424056    1.009809    1.387461
 H   -2.684417   -1.568284    4.168409
 O   -0.257965   -1.595575    3.093864
 H   -1.672981    2.192421    0.451249
 H   -0.031491   -0.716479   -2.314601
 H   -2.126366    3.730258   -1.445047
 H   -0.457669    0.837033   -4.198672
 H   -1.505251    3.072150   -3.780087
 H    3.884262   -1.455426   -2.706769
 H    4.562601    1.610684    0.279978
 H   -3.535829    0.107991    0.370704
 H   -4.585202   -0.670494    2.716740
 H    5.307808    0.393326   -1.783173
}
set optking {
  frozen_dihedral = ("
    1 2 3 4
    2 1 12 13
    7 1 2 3
  ")
}
set {
  geom_maxiter 400
  g_convergence GAU_LOOSE
  dynamic_level 1
}
memory 8.166666666666666GB
set_num_threads(2)
psi4_io.set_default_path("/scratch/bdw2292/Psi4-1_16_Index_0-farH_in17")
for _ in range(1):
  try:
    set opt_coordinates both
    optimize('wb97x-d/6-311G')
    break
  except OptimizationConvergenceError:
    break
  else:
    try:
      set opt_coordinates cartesian
      optimize('wb97x-d/6-311G')
      break
    except OptimizationConvergenceError:
      pass
clean()
--------------------------------------------------------------------------

    Molecular point group: c1
  Charge       = 0
  Multiplicity = 1
  Basis Set: 6-311G
    Blend: 6-311G
  Basis Set: (6-311G AUX)
    Blend: CC-PVTZ-JKFIT
  @DF-RKS Final Energy:  -840.64149432516820
    Total Energy =                       -840.6414943251683098
    Molecular point group: c1
  Basis Set: 6-311G
    Blend: 6-311G
  Basis Set: (6-311G AUX)
    Blend: CC-PVTZ-JKFIT
  Basis Set: 6-311G
    Blend: 6-311G
  Basis Set: (6-311G AUX)
    Blend: CC-PVTZ-JKFIT
  @DF-RKS Final Energy:  -840.64896740276345
    Total Energy =                       -840.6489674027635601
  Basis Set: 6-311G
    Blend: 6-311G
  Basis Set: (6-311G AUX)
    Blend: CC-PVTZ-JKFIT
  Basis Set: 6-311G
    Blend: 6-311G
  @DF-RKS Final Energy:  -840.64986550656249
    Total Energy =                       -840.6498655065624916
  @DF-RKS Final Energy:  -840.64997736116027
    Total Energy =                       -840.6499773611602677
  @DF-RKS Final Energy:  -840.65002867903365
    Total Energy =                       -840.6500286790336531
  Basis Set: (6-311G AUX)
    Blend: CC-PVTZ-JKFIT
  Basis Set: 6-311G
    Blend: 6-311G
  Basis Set: (6-311G AUX)
    Blend: CC-PVTZ-JKFIT
  @DF-RKS Final Energy:  -840.65004835899242
    Total Energy =                       -840.6500483589925352
  Basis Set: 6-311G
    Blend: 6-311G
  Basis Set: (6-311G AUX)
    Blend: CC-PVTZ-JKFIT
  Charge       = 0
  Multiplicity = 1
  Basis Set: 6-311G
    Blend: 6-311G
  Basis Set: (6-311G AUX)
    Blend: CC-PVTZ-JKFIT

    Orbital Energies [Eh]
    ---------------------

    Doubly Occupied:

       1A    -19.200518     2A    -14.463284     3A    -14.462631
       4A    -10.381265     5A    -10.367839     6A    -10.342683
       7A    -10.318867     8A    -10.314160     9A    -10.305223
      10A    -10.303774    11A    -10.303335    12A    -10.302716
      13A    -10.302149    14A    -10.302148    15A    -10.301868
      16A    -10.301674    17A    -10.300964    18A    -10.300614
      19A    -10.282911    20A    -10.277531    21A     -1.131525
      22A     -1.067385    23A     -1.051725    24A     -0.982840
      25A     -0.970864    26A     -0.909559    27A     -0.872468
      28A     -0.865613    29A     -0.863350    30A     -0.858486
      31A     -0.815482    32A     -0.768202    33A     -0.726849
      34A     -0.724705    35A     -0.716745    36A     -0.695854
      37A     -0.679976    38A     -0.669410    39A     -0.641735
      40A     -0.619207    41A     -0.597424    42A     -0.583464
      43A     -0.580443    44A     -0.567957    45A     -0.558657
      46A     -0.548837    47A     -0.541264    48A     -0.528103
      49A     -0.522579    50A     -0.519771    51A     -0.514275
      52A     -0.508148    53A     -0.492814    54A     -0.479405
      55A     -0.472412    56A     -0.467953    57A     -0.454666
      58A     -0.453355    59A     -0.443590    60A     -0.439103
      61A     -0.424136    62A     -0.399281    63A     -0.350326
      64A     -0.345077    65A     -0.342544    66A     -0.338518
      67A     -0.325562    68A     -0.321461    69A     -0.255491

  @DF-RKS Final Energy:  -840.65006856236892

   => Energetics <=

    Nuclear Repulsion Energy =           1425.8605997931508682
    One-Electron Energy =               -3969.9474880082002528
    Two-Electron Energy =                1786.1327690048169643
    DFT Exchange-Correlation Energy =     -82.6717332740016104
    Empirical Dispersion Energy =          -0.0242160781349505
    VV10 Nonlocal Energy =                  0.0000000000000000
    Total Energy =                       -840.6500685623689151

  Dipole Moment: [D]
     X:    -0.5428      Y:     2.2628      Z:    -2.7043     Total:     3.5677

    Molecular point group: c1
  Basis Set: 6-311G
    Blend: 6-311G
  Basis Set: (6-311G AUX)
    Blend: CC-PVTZ-JKFIT

  -Total Gradient:
     Atom            X                  Y                   Z
    ------   -----------------  -----------------  -----------------
       1       -0.001441889801    -0.000486880822    -0.001188424793
       2       -0.001011580950     0.002174545896     0.000660800347
       3        0.003354695696    -0.005566877424     0.002958643347
       4       -0.002366597829     0.003238398982    -0.002466567208
       5        0.000126047647    -0.000002104836    -0.000073562853
       6       -0.000006692811     0.000067528851    -0.000052378258
       7        0.000393192855     0.001318067539     0.000864925229
       8       -0.000280878859     0.000154803563    -0.000095605736
       9       -0.000042461362     0.000314098377    -0.000109820645
      10        0.000463744802    -0.000164757434     0.000059531656
      11        0.000041192616    -0.000212562463     0.000190381631
      12        0.004716771075     0.000985866244    -0.000380800586
      13       -0.003658079337    -0.001674550087    -0.000567226631
      14       -0.000131692978    -0.000009954176    -0.000017817893
      15        0.000060482985    -0.000023789860     0.000068906062
      16        0.000001567910     0.000005405114    -0.000024433898
      17        0.000032394154    -0.000068936682    -0.000032647327
      18       -0.000006290250    -0.000001969115     0.000018347706
      19       -0.000097132307    -0.000033481582     0.000061175590
      20       -0.000038782385    -0.000035793974    -0.000017931487
      21        0.000001828027     0.000003740338    -0.000043568397
      22        0.000018531841     0.000011790448     0.000009205714
      23       -0.000033842285    -0.000053770508     0.000126906251
      24       -0.000024551043     0.000064559805     0.000120468428
      25       -0.000083000706    -0.000016031473     0.000033614132
      26        0.000087072938    -0.000037832084    -0.000010442395
      27       -0.000025187318    -0.000013376897    -0.000002024097
      28        0.000021193604    -0.000033707522    -0.000043121210
      29       -0.000022169509    -0.000037586765    -0.000030258123
      30       -0.000010600296    -0.000019480433    -0.000014824992
      31       -0.000004348684     0.000025911035     0.000003159896
      32       -0.000044109591     0.000105566547    -0.000121620005
      33       -0.000055198362     0.000027390501     0.000019040323
      34       -0.000030710619    -0.000002546817    -0.000004489623

  **** Optimization is complete! (in 7 steps) ****
    Final optimized geometry and variables:
    Molecular point group: c1

    Geometry (in Angstrom), charge = 0, multiplicity = 1:

    C           -0.536840094752    -0.289000194529     0.382102558367
    N            0.681077540590    -0.866806963314     0.577079780600
    C            1.906603484278    -0.531614125813    -0.082990785080
    C            2.296430790461    -1.181411800264    -1.252671158549
    H            0.736495710668    -1.440089903940     1.424649278107
    C            2.709738704749     0.476213802295     0.451169869198
    C           -1.536913274504    -0.521696968700     1.306353846113
    N           -2.514290559782    -1.298197697597     3.190409930730
    C           -2.939367338135    -0.126474017494     1.315946933276
    C           -1.308804199092    -1.292984869748     2.521899283476
    C           -3.491249163375    -0.603951037673     2.454636221366
    C           -0.774727213397     0.585278185923    -0.796541305405
    C           -1.351064898908     1.846557913451    -0.601421098745
    C           -0.526559052876     0.150984169237    -2.102996935899
    C           -1.629176678157     2.673241341333    -1.685401669237
    C           -0.811797417979     0.975634074099    -3.186863306149
    C           -1.356576329433     2.241148270068    -2.981442208145
    C            3.484776229130    -0.825431445825    -1.885134415132
    C            3.898638355767     0.830321659422    -0.181147555159
    C            4.285605302436     0.183114286909    -1.352928070756
    H            1.682106714371    -1.980064012470    -1.643285357603
    H            2.391335522876     0.974455299462     1.356314085844
    H           -2.649206519632    -1.764187031053     4.066541230816
    O           -0.246913668621    -1.858794040536     2.917285542759
    H           -1.558654629928     2.181029774232     0.405464391587
    H           -0.132787685575    -0.838273550293    -2.274664622725
    H           -2.058576978840     3.651333549475    -1.517303730407
    H           -0.614722959692     0.626513747767    -4.191167016815
    H           -1.573231603790     2.882230186418    -3.824982644621
    H            3.784799565561    -1.335404392914    -2.790265972083
    H            4.517019260372     1.612706652714     0.236821176623
    H           -3.449972992301     0.426008314628     0.547278314105
    H           -4.499670614898    -0.526767525981     2.819076704679
    H            5.206501576560     0.460751135626    -1.846894784618

*** Psi4 exiting successfully. Buy a developer a beer!
