                               Psi4 1.5 release

  ==> Input File <==

--------------------------------------------------------------------------
molecule {
0 1
 C   -0.571476   -0.243975    0.197436
 N    0.610738   -0.980321    0.139617
 C    1.901465   -0.700187   -0.380497
 C    2.987678   -0.695854    0.536369
 H    0.585345   -1.811193    0.761648
 C    2.182777   -0.559421   -1.761380
 C   -1.587516   -0.693165    1.055835
 N   -2.609560   -1.884907    2.706577
 C   -2.972439   -0.289089    1.155983
 C   -1.402897   -1.763055    2.062541
 C   -3.547646   -1.009051    2.157350
 C   -0.764087    0.994729   -0.611973
 C   -1.212788    2.186742    0.018790
 C   -0.729986    0.962297   -2.029743
 C   -1.503197    3.331722   -0.734253
 C   -1.015296    2.110344   -2.780854
 C   -1.392451    3.305765   -2.138183
 C    4.297682   -0.477945    0.089347
 C    3.496857   -0.339268   -2.200231
 C    4.563396   -0.289591   -1.280903
 H    2.801301   -0.852919    1.601774
 H    1.392030   -0.636881   -2.502855
 H   -2.755103   -2.542590    3.458529
 O   -0.374053   -2.446184    2.297380
 H   -1.316254    2.212490    1.105431
 H   -0.507661    0.028687   -2.543975
 H   -1.817137    4.246976   -0.229148
 H   -0.954211    2.073707   -3.870074
 H   -1.609118    4.200825   -2.724052
 H    5.113755   -0.456298    0.813665
 H    3.689907   -0.212443   -3.267013
 H   -3.472359    0.456860    0.553401
 H   -4.558683   -0.985043    2.539216
 H    5.584142   -0.116421   -1.626867
}
set optking {
  frozen_dihedral = ("
    1 2 3 4
    2 1 12 13
    7 1 2 3
  ")
}
set {
  geom_maxiter 400
  g_convergence GAU_LOOSE
  dynamic_level 1
}
memory 8.166666666666666GB
set_num_threads(2)
psi4_io.set_default_path("/scratch/bdw2292/Psi4-1_16_Index_0-farH_in17")
for _ in range(1):
  try:
    set opt_coordinates both
    optimize('wb97x-d/6-311G')
    break
  except OptimizationConvergenceError:
    break
  else:
    try:
      set opt_coordinates cartesian
      optimize('wb97x-d/6-311G')
      break
    except OptimizationConvergenceError:
      pass
clean()
--------------------------------------------------------------------------

    Molecular point group: c1
  Charge       = 0
  Multiplicity = 1
  Basis Set: 6-311G
    Blend: 6-311G
  Basis Set: (6-311G AUX)
    Blend: CC-PVTZ-JKFIT
  @DF-RKS Final Energy:  -840.63875463411421
    Total Energy =                       -840.6387546341143207
    Molecular point group: c1
  Basis Set: 6-311G
    Blend: 6-311G
  Basis Set: (6-311G AUX)
    Blend: CC-PVTZ-JKFIT
  Basis Set: 6-311G
    Blend: 6-311G
  Basis Set: (6-311G AUX)
    Blend: CC-PVTZ-JKFIT
  @DF-RKS Final Energy:  -840.64585962788885
    Total Energy =                       -840.6458596278888535
  Basis Set: 6-311G
    Blend: 6-311G
  Basis Set: (6-311G AUX)
    Blend: CC-PVTZ-JKFIT
  Basis Set: 6-311G
    Blend: 6-311G
  @DF-RKS Final Energy:  -840.64662796991934
    Total Energy =                       -840.6466279699192228
  @DF-RKS Final Energy:  -840.64676177137960
    Total Energy =                       -840.6467617713796017
  @DF-RKS Final Energy:  -840.64691372402569
    Total Energy =                       -840.6469137240255804
  Basis Set: (6-311G AUX)
    Blend: CC-PVTZ-JKFIT
  Basis Set: 6-311G
    Blend: 6-311G
  Basis Set: (6-311G AUX)
    Blend: CC-PVTZ-JKFIT
  @DF-RKS Final Energy:  -840.64692719016875
    Total Energy =                       -840.6469271901688671
  Basis Set: 6-311G
    Blend: 6-311G
  Basis Set: (6-311G AUX)
    Blend: CC-PVTZ-JKFIT
  Charge       = 0
  Multiplicity = 1
  Basis Set: 6-311G
    Blend: 6-311G
  Basis Set: (6-311G AUX)
    Blend: CC-PVTZ-JKFIT

    Orbital Energies [Eh]
    ---------------------

    Doubly Occupied:

       1A    -19.203903     2A    -14.468406     3A    -14.465174
       4A    -10.384215     5A    -10.370366     6A    -10.344634
       7A    -10.321989     8A    -10.316269     9A    -10.309051
      10A    -10.306449    11A    -10.305902    12A    -10.305214
      13A    -10.304393    14A    -10.298901    15A    -10.298328
      16A    -10.298095    17A    -10.296588    18A    -10.295919
      19A    -10.285932    20A    -10.279243    21A     -1.134558
      22A     -1.069736    23A     -1.054399    24A     -0.985526
      25A     -0.969280    26A     -0.912503    27A     -0.875264
      28A     -0.867685    29A     -0.860802    30A     -0.858328
      31A     -0.816519    32A     -0.771036    33A     -0.728467
      34A     -0.727717    35A     -0.714225    36A     -0.697172
      37A     -0.681316    38A     -0.668874    39A     -0.643407
      40A     -0.619082    41A     -0.599638    42A     -0.585008
      43A     -0.582034    44A     -0.564724    45A     -0.557105
      46A     -0.552453    47A     -0.540507    48A     -0.528992
      49A     -0.521597    50A     -0.519286    51A     -0.517514
      52A     -0.509955    53A     -0.494594    54A     -0.483161
      55A     -0.473560    56A     -0.470514    57A     -0.452942
      58A     -0.452494    59A     -0.445338    60A     -0.438676
      61A     -0.426922    62A     -0.401813    63A     -0.356838
      64A     -0.347751    65A     -0.344192    66A     -0.335834
      67A     -0.329112    68A     -0.314947    69A     -0.256287

  @DF-RKS Final Energy:  -840.64694600076189

   => Energetics <=

    Nuclear Repulsion Energy =           1417.6947421020563525
    One-Electron Energy =               -3953.4632334143661865
    Two-Electron Energy =                1777.8163723816544461
    DFT Exchange-Correlation Energy =     -82.6709939560153089
    Empirical Dispersion Energy =          -0.0238331140911077
    VV10 Nonlocal Energy =                  0.0000000000000000
    Total Energy =                       -840.6469460007617727

  Dipole Moment: [D]
     X:    -0.8550      Y:     2.9227      Z:    -1.4697     Total:     3.3813

    Molecular point group: c1
  Basis Set: 6-311G
    Blend: 6-311G
  Basis Set: (6-311G AUX)
    Blend: CC-PVTZ-JKFIT

  -Total Gradient:
     Atom            X                  Y                   Z
    ------   -----------------  -----------------  -----------------
       1        0.003210524804     0.006524883017     0.007869925730
       2       -0.001730580556    -0.003086361646     0.000672052208
       3       -0.001316603760     0.000031913581    -0.003759077074
       4       -0.000029349162    -0.000772903241    -0.000219350444
       5        0.000089717741     0.000193345233    -0.000008939066
       6       -0.000104044675    -0.000057359944     0.000170705594
       7       -0.001514107239    -0.001632303626    -0.002642811874
       8       -0.000399019604    -0.000208090956    -0.000244564012
       9        0.000014523213     0.000050881765    -0.000303652564
      10        0.000535133933     0.000375152640     0.000338509127
      11        0.000200445726     0.000006364724     0.000426149954
      12        0.008183457544     0.000370104458    -0.001591662972
      13       -0.006662476239    -0.001449907192    -0.000708110131
      14       -0.000169820930     0.000081411357     0.000092108131
      15        0.000031437262    -0.000077197163     0.000028392218
      16       -0.000032989788     0.000100022977     0.000069331183
      17       -0.000016800890    -0.000078115137    -0.000056943230
      18       -0.000035437115     0.000036471554    -0.000080979392
      19       -0.000009106088     0.000042742795     0.000064396045
      20       -0.000015718823    -0.000097743772    -0.000025820085
      21        0.000002632022    -0.000071370988    -0.000000767093
      22       -0.000123710688     0.000041925531    -0.000060909299
      23       -0.000082055934    -0.000137109499     0.000066471899
      24       -0.000143377273    -0.000319911038    -0.000013499086
      25       -0.000049044761    -0.000039313161     0.000057450565
      26        0.000209044681    -0.000097874541    -0.000075203446
      27       -0.000027571514     0.000009246617     0.000006982215
      28       -0.000011292491     0.000026445069    -0.000079939546
      29       -0.000000170818     0.000031999971    -0.000031725577
      30        0.000037758782    -0.000008186593     0.000009576081
      31        0.000025509007     0.000026376691    -0.000034767120
      32       -0.000055648612     0.000051794436    -0.000108791817
      33       -0.000033505386    -0.000023709595     0.000047371473
      34        0.000020985681     0.000030700987    -0.000032198109

  **** Optimization is complete! (in 7 steps) ****
    Final optimized geometry and variables:
    Molecular point group: c1

    Geometry (in Angstrom), charge = 0, multiplicity = 1:

    C           -0.525867722648    -0.206939135878     0.293963749802
    N            0.576986411462    -0.997865475720     0.167133288961
    C            1.861159948021    -0.704301762242    -0.382117857041
    C            2.949627592857    -0.798845266774     0.494405848286
    H            0.543179538971    -1.819554989441     0.780345475527
    C            2.095138424233    -0.422310946785    -1.727485212752
    C           -1.539660819784    -0.630376312651     1.131824695478
    N           -2.596620118854    -1.885908735514     2.686212996424
    C           -2.863832185694    -0.074920510124     1.375592302372
    C           -1.412065575932    -1.803956747992     1.988008013581
    C           -3.465791343223    -0.846051652040     2.309280948699
    C           -0.721024597538     1.015294907218    -0.531495556584
    C           -1.042643662000     2.223640827459     0.097779717242
    C           -0.810334360305     0.939106473128    -1.925493211581
    C           -1.352918019912     3.353041514024    -0.653986839356
    C           -1.128107949175     2.065738187958    -2.677650823116
    C           -1.386988250242     3.279389635114    -2.044631983135
    C            4.245574238844    -0.587890577485     0.038454118252
    C            3.394684334220    -0.194631736070    -2.176877189171
    C            4.472878515701    -0.274209326792    -1.300675061776
    H            2.762551383298    -1.033909567679     1.533663713318
    H            1.281392881616    -0.399360961354    -2.430129561449
    H           -2.789657394188    -2.610627188041     3.349929261333
    O           -0.440184723462    -2.610550081269     2.090559254860
    H           -1.029007110588     2.275760942713     1.177810456762
    H           -0.678683073494    -0.013765376787    -2.416841702113
    H           -1.576442911392     4.285316140394    -0.153843136014
    H           -1.190959243013     1.990644767338    -3.754673762544
    H           -1.631431785135     4.155552678826    -2.629433622801
    H            5.074283796203    -0.663725824346     0.728941976885
    H            3.560812529595     0.028331222539    -3.222028619721
    H           -3.291874921863     0.782861652428     0.888108699617
    H           -4.445342061506    -0.766722016426     2.744887085916
    H            5.478853274715    -0.102699067218    -1.657817038092

*** Psi4 exiting successfully. Buy a developer a beer!
