                               Psi4 1.5 release

  ==> Input File <==

--------------------------------------------------------------------------
molecule {
0 1
 C   -0.571224   -0.220430    0.372301
 N    0.609735   -0.899146    0.426446
 C    1.850548   -0.568155   -0.169157
 C    2.701868   -1.620462   -0.521698
 H    0.617599   -1.653470    1.118257
 C    2.271025    0.751276   -0.360961
 C   -1.570770   -0.548213    1.261895
 N   -2.598133   -1.620381    2.967196
 C   -2.942893   -0.070383    1.369527
 C   -1.395029   -1.563040    2.297651
 C   -3.523481   -0.725773    2.399757
 C   -0.785574    0.797297   -0.687962
 C   -1.253631    2.074110   -0.364148
 C   -0.536523    0.475494   -2.026780
 C   -1.464517    3.018421   -1.365945
 C   -0.755781    1.417467   -3.025594
 C   -1.217074    2.691847   -2.697584
 C    3.951639   -1.356776   -1.071813
 C    3.514998    1.005899   -0.930482
 C    4.360744   -0.042137   -1.288612
 H    2.373450   -2.639429   -0.365063
 H    1.637177    1.571819   -0.061073
 H   -2.767475   -2.245518    3.731006
 O   -0.381146   -2.277114    2.543267
 H   -1.437045    2.325753    0.671678
 H   -0.170071   -0.510198   -2.278794
 H   -1.819486    4.006392   -1.106089
 H   -0.565531    1.158581   -4.058043
 H   -1.382352    3.424838   -3.475399
 H    4.601919   -2.179419   -1.336349
 H    3.828124    2.030336   -1.079519
 H   -3.413408    0.660639    0.736503
 H   -4.521802   -0.649883    2.791289
 H    5.329007    0.162842   -1.723554
}
memory 8.166666666666666GB
set_num_threads(2)
psi4_io.set_default_path("/scratch/bdw2292/Psi4-1_16_Index_0-farH_in17")
set freeze_core True
E, wfn = energy('wb97x-d/6-311+G*',return_wfn=True)
oeprop(wfn,"WIBERG_LOWDIN_INDICES")
clean()
--------------------------------------------------------------------------

    Molecular point group: c1

    Geometry (in Angstrom), charge = 0, multiplicity = 1:

       Center              X                  Y                   Z               Mass
    ------------   -----------------  -----------------  -----------------  -----------------
         C           -0.571224002221    -0.220429886763     0.372301025431    12.000000000000
         N            0.609734997779    -0.899145886763     0.426446025431    14.003074004430
         C            1.850547997779    -0.568154886763    -0.169156974569    12.000000000000
         C            2.701867997779    -1.620461886763    -0.521697974569    12.000000000000
         H            0.617598997779    -1.653469886763     1.118257025431     1.007825032230
         C            2.271024997779     0.751276113237    -0.360960974569    12.000000000000
         C           -1.570770002221    -0.548212886763     1.261895025431    12.000000000000
         N           -2.598133002221    -1.620380886763     2.967196025431    14.003074004430
         C           -2.942893002221    -0.070382886763     1.369527025431    12.000000000000
         C           -1.395029002221    -1.563039886763     2.297651025431    12.000000000000
         C           -3.523481002221    -0.725772886763     2.399757025431    12.000000000000
         C           -0.785574002221     0.797297113237    -0.687961974569    12.000000000000
         C           -1.253631002221     2.074110113237    -0.364147974569    12.000000000000
         C           -0.536523002221     0.475494113237    -2.026779974569    12.000000000000
         C           -1.464517002221     3.018421113237    -1.365944974569    12.000000000000
         C           -0.755781002221     1.417467113237    -3.025593974569    12.000000000000
         C           -1.217074002221     2.691847113237    -2.697583974569    12.000000000000
         C            3.951638997779    -1.356775886763    -1.071812974569    12.000000000000
         C            3.514997997779     1.005899113237    -0.930481974569    12.000000000000
         C            4.360743997779    -0.042136886763    -1.288611974569    12.000000000000
         H            2.373449997779    -2.639428886763    -0.365062974569     1.007825032230
         H            1.637176997779     1.571819113237    -0.061072974569     1.007825032230
         H           -2.767475002221    -2.245517886763     3.731006025431     1.007825032230
         O           -0.381146002221    -2.277113886763     2.543267025431    15.994914619570
         H           -1.437045002221     2.325753113237     0.671678025431     1.007825032230
         H           -0.170071002221    -0.510197886763    -2.278793974569     1.007825032230
         H           -1.819486002221     4.006392113237    -1.106088974569     1.007825032230
         H           -0.565531002221     1.158581113237    -4.058042974569     1.007825032230
         H           -1.382352002221     3.424838113237    -3.475398974569     1.007825032230
         H            4.601918997779    -2.179418886763    -1.336348974569     1.007825032230
         H            3.828123997779     2.030336113237    -1.079518974569     1.007825032230
         H           -3.413408002221     0.660639113237     0.736503025431     1.007825032230
         H           -4.521802002221    -0.649882886763     2.791289025431     1.007825032230
         H            5.329006997779     0.162842113237    -1.723553974569     1.007825032230

  Charge       = 0
  Multiplicity = 1
  Basis Set: 6-311+G*
    Blend: 6-311+G*
  Basis Set: (6-311+G* AUX)
    Blend: HEAVY-AUG-CC-PVTZ-JKFIT

    Orbital Energies [Eh]
    ---------------------

    Doubly Occupied:

       1A    -19.206725     2A    -14.469426     3A    -14.465918
       4A    -10.379322     5A    -10.364936     6A    -10.340012
       7A    -10.317807     8A    -10.316965     9A    -10.305116
      10A    -10.304421    11A    -10.304050    12A    -10.303324
      13A    -10.302393    14A    -10.295113    15A    -10.294844
      16A    -10.293211    17A    -10.292868    18A    -10.290265
      19A    -10.284438    20A    -10.279979    21A     -1.124447
      22A     -1.069975    23A     -1.049240    24A     -0.979841
      25A     -0.962280    26A     -0.909628    27A     -0.872939
      28A     -0.863700    29A     -0.855659    30A     -0.853490
      31A     -0.813785    32A     -0.768816    33A     -0.725921
      34A     -0.721849    35A     -0.713874    36A     -0.695316
      37A     -0.680165    38A     -0.664870    39A     -0.636807
      40A     -0.617606    41A     -0.599383    42A     -0.582345
      43A     -0.582086    44A     -0.562481    45A     -0.554068
      46A     -0.541302    47A     -0.533798    48A     -0.526151
      49A     -0.521454    50A     -0.516626    51A     -0.514224
      52A     -0.510691    53A     -0.498262    54A     -0.482081
      55A     -0.479074    56A     -0.474329    57A     -0.450802
      58A     -0.448861    59A     -0.444705    60A     -0.439660
      61A     -0.429189    62A     -0.406210    63A     -0.365931
      64A     -0.346607    65A     -0.343370    66A     -0.337777
      67A     -0.332172    68A     -0.309165    69A     -0.259947

  @DF-RKS Final Energy:  -840.87268946889776

   => Energetics <=

    Nuclear Repulsion Energy =           1426.6021271601578064
    One-Electron Energy =               -3971.9863523470539803
    Two-Electron Energy =                1787.2217049858766131
    DFT Exchange-Correlation Energy =     -82.6857354841785366
    Empirical Dispersion Energy =          -0.0244337836994683
    VV10 Nonlocal Energy =                  0.0000000000000000
    Total Energy =                       -840.8726894688977609

  Dipole Moment: [D]
     X:    -1.1839      Y:     2.3376      Z:    -2.0553     Total:     3.3301

*** Psi4 exiting successfully. Buy a developer a beer!
