                               Psi4 1.3.2 release

  ==> Input File <==

--------------------------------------------------------------------------
molecule {
0 1
C         -5.39960       -1.30330       -0.41360
C         -4.15550       -0.51950       -0.13450
N         -2.88880       -1.10540       -0.07100
C         -2.79090       -2.55700       -0.33120
C         -1.67290       -0.44230        0.21710
C          0.81870        0.79670        0.73960
C          0.76840       -0.39010        0.07510
C         -0.38080        1.37730        1.15150
C         -0.45250       -0.99130       -0.17810
C         -1.58120        0.75890        0.88810
O         -4.29600        0.70990        0.04690
H         -2.17240       -3.04390        0.42450
H         -2.33400       -2.65370       -1.32860
H         -3.80720       -3.03690       -0.27370
N         -6.53810       -0.48150       -0.39510
H         -5.54410       -2.13730        0.30810
H         -5.24070       -1.74240       -1.43810
H          1.69470       -0.88110       -0.25600
H         -0.33620        2.31250        1.67300
H         -0.49600       -1.93920       -0.70890
H         -2.48410        1.26410        1.24600
C         -6.95280        0.08910        0.82430
C         -7.06200        0.02090       -1.60130
H         -6.37020        1.01670        1.06340
H         -6.70880       -0.63220        1.65040
H         -7.17230       -0.79300       -2.34110
H         -6.38110        0.82340       -2.01090
H          1.72230        1.25580        0.93390
H         -7.99610        0.31140        0.74040
H         -8.02640        0.44240       -1.40830
}
memory 100GB
set_num_threads(12)
psi4_io.set_default_path("/scratch/bdw2292/Psi4-farH_in17")
set maxiter 500
set freeze_core True
set PROPERTIES_ORIGIN ["COM"]
set cubeprop_tasks ['esp']
E, wfn = properties('hf/MINIX',properties=['dipole'],return_wfn=True)
cubeprop(wfn)
fchk(wfn, "farH_in17-esp_frag.fchk")
oeprop(wfn,"WIBERG_LOWDIN_INDICES","MULLIKEN_CHARGES")
clean()
--------------------------------------------------------------------------

    Molecular point group: c1

    Geometry (in Angstrom), charge = 0, multiplicity = 1:

       Center              X                  Y                   Z               Mass
    ------------   -----------------  -----------------  -----------------  -----------------
         C           -2.228831177712    -0.999847968226    -0.451741185693    12.000000000000
         C           -0.984731177712    -0.216047968226    -0.172641185693    12.000000000000
         N            0.281968822288    -0.801947968226    -0.109141185693    14.003074004430
         C            0.379868822288    -2.253547968226    -0.369341185693    12.000000000000
         C            1.497868822288    -0.138847968226     0.178958814307    12.000000000000
         C            3.989468822288     1.100152031774     0.701458814307    12.000000000000
         C            3.939168822288    -0.086647968226     0.036958814307    12.000000000000
         C            2.789968822288     1.680752031774     1.113358814307    12.000000000000
         C            2.718268822288    -0.687847968226    -0.216241185693    12.000000000000
         C            1.589568822288     1.062352031774     0.849958814307    12.000000000000
         O           -1.125231177712     1.013352031774     0.008758814307    15.994914619570
         H            0.998368822288    -2.740447968226     0.386358814307     1.007825032230
         H            0.836768822288    -2.350247968226    -1.366741185693     1.007825032230
         H           -0.636431177712    -2.733447968226    -0.311841185693     1.007825032230
         N           -3.367331177712    -0.178047968226    -0.433241185693    14.003074004430
         H           -2.373331177712    -1.833847968226     0.269958814307     1.007825032230
         H           -2.069931177712    -1.438947968226    -1.476241185693     1.007825032230
         H            4.865468822288    -0.577647968226    -0.294141185693     1.007825032230
         H            2.834568822288     2.615952031774     1.634858814307     1.007825032230
         H            2.674768822288    -1.635747968226    -0.747041185693     1.007825032230
         H            0.686668822288     1.567552031774     1.207858814307     1.007825032230
         C           -3.782031177712     0.392552031774     0.786158814307    12.000000000000
         C           -3.891231177712     0.324352031774    -1.639441185693    12.000000000000
         H           -3.199431177712     1.320152031774     1.025258814307     1.007825032230
         H           -3.538031177712    -0.328747968226     1.612258814307     1.007825032230
         H           -4.001531177712    -0.489547968226    -2.379241185693     1.007825032230
         H           -3.210331177712     1.126852031774    -2.049041185693     1.007825032230
         H            4.893068822288     1.559252031774     0.895758814307     1.007825032230
         H           -4.825331177712     0.614852031774     0.702258814307     1.007825032230
         H           -4.855631177712     0.745852031774    -1.446441185693     1.007825032230

  Charge       = 0
  Multiplicity = 1
  Basis Set: MINIX
    Blend: MINIX
  Basis Set: (MINIX AUX)
    Blend: DEF2-SVP-JKFIT

    Orbital Energies [Eh]
    ---------------------

    Doubly Occupied:

       1A    -20.275045     2A    -15.454460     3A    -15.369896
       4A    -11.305059     5A    -11.236163     6A    -11.221081
       7A    -11.212825     8A    -11.178597     9A    -11.176452
      10A    -11.171886    11A    -11.171053    12A    -11.166983
      13A    -11.165793    14A    -11.164354    15A     -1.364928
      16A     -1.248090    17A     -1.232823    18A     -1.157231
      19A     -1.037649    20A     -1.019513    21A     -0.997576
      22A     -0.956447    23A     -0.947657    24A     -0.858745
      25A     -0.825574    26A     -0.801857    27A     -0.745104
      28A     -0.700797    29A     -0.694691    30A     -0.671202
      31A     -0.652859    32A     -0.643916    33A     -0.636236
      34A     -0.620970    35A     -0.608805    36A     -0.593686
      37A     -0.577429    38A     -0.555787    39A     -0.553820
      40A     -0.540135    41A     -0.533687    42A     -0.526128
      43A     -0.514227    44A     -0.510187    45A     -0.500329
      46A     -0.488329    47A     -0.476825    48A     -0.401856
      49A     -0.393936    50A     -0.348178    51A     -0.309994
      52A     -0.303874

  @DF-RHF Final Energy:  -605.39789940903358

   => Energetics <=

    Nuclear Repulsion Energy =            891.4605134974227667
    One-Electron Energy =               -2592.0754163525548392
    Two-Electron Energy =                1095.2170034460984880
    Total Energy =                       -605.3978994090336982

  Dipole Moment: [D]
     X:    -0.0270      Y:    -3.3093      Z:    -0.5183     Total:     3.3497

  Basis Set: MINIX
    Blend: MINIX

  Mulliken Charges: (a.u.)
   Center  Symbol    Alpha    Beta     Spin     Total
       1     C     3.06474  3.06474  0.00000 -0.12949
       2     C     2.81238  2.81238  0.00000  0.37525
       3     N     3.65978  3.65978  0.00000 -0.31955
       4     C     3.11996  3.11996  0.00000 -0.23993
       5     C     2.94927  2.94927  0.00000  0.10147
       6     C     3.07948  3.07948  0.00000 -0.15896
       7     C     3.06877  3.06877  0.00000 -0.13754
       8     C     3.06675  3.06675  0.00000 -0.13349
       9     C     3.07393  3.07393  0.00000 -0.14786
      10     C     3.07083  3.07083  0.00000 -0.14165
      11     O     4.21017  4.21017  0.00000 -0.42034
      12     H     0.42940  0.42940  0.00000  0.14121
      13     H     0.43251  0.43251  0.00000  0.13498
      14     H     0.42955  0.42955  0.00000  0.14090
      15     N     3.66906  3.66906  0.00000 -0.33812
      16     H     0.43156  0.43156  0.00000  0.13689
      17     H     0.42761  0.42761  0.00000  0.14479
      18     H     0.42923  0.42923  0.00000  0.14155
      19     H     0.42882  0.42882  0.00000  0.14237
      20     H     0.43457  0.43457  0.00000  0.13086
      21     H     0.41579  0.41579  0.00000  0.16842
      22     C     3.11744  3.11744  0.00000 -0.23487
      23     C     3.11807  3.11807  0.00000 -0.23614
      24     H     0.43321  0.43321  0.00000  0.13358
      25     H     0.44134  0.44134  0.00000  0.11733
      26     H     0.44085  0.44085  0.00000  0.11829
      27     H     0.43955  0.43955  0.00000  0.12090
      28     H     0.43103  0.43103  0.00000  0.13793
      29     H     0.43858  0.43858  0.00000  0.12285
      30     H     0.43581  0.43581  0.00000  0.12838

   Total alpha = 52.00000, Total beta = 52.00000, Total charge = -0.00000

*** Psi4 exiting successfully. Buy a developer a beer!
