                               Psi4 1.5 release

  ==> Input File <==

--------------------------------------------------------------------------
molecule {
0 1
N -0.272552034317 0.283397765068 -0.738619717919
C 0.850912553875 -0.268578901551 -0.144615435914
C 2.159972761180 -0.041954225017 -0.899560394140
N 3.298861800062 -0.624463820021 -0.223365115286
O 0.794414288688 -0.907283259366 0.903383392461
H 2.070321873304 -0.516794514462 -1.885002956064
H 2.297288855864 1.042982778353 -1.088539125863
C -1.520788806943 0.218381291896 -0.053552147431
C -4.007744760531 0.101823463628 1.217638657249
C -3.251715041031 -1.057798381716 1.039437113114
C -3.513329670153 1.321885954639 0.759485099193
C -2.016281395530 -1.008792372318 0.398979011992
C -2.270164577243 1.384446622022 0.131581407624
C -0.197358434774 1.136851988240 -1.920471313454
C 4.445297529129 -0.641186870606 -1.119726533229
C 3.623311348309 0.111135951145 0.992418192736
H -3.630918499626 -2.013538460456 1.391994031591
H -4.089997227307 2.232794613656 0.898785571352
H -1.430163733463 -1.909024444572 0.255569698761
H -1.876446785434 2.342364775810 -0.197981686976
H -1.191082341154 1.179589009515 -2.367024087592
H 0.129962848522 2.157648973182 -1.690032568143
H 0.483756953280 0.710498029335 -2.657599098871
H 4.213120799301 -1.238972257394 -2.005434236723
H 4.752989809223 0.368401287167 -1.449706731494
H 3.879168605261 1.167327266357 0.785483416621
H 2.778259288826 0.068639364571 1.677051599236
H -4.973960853675 0.054577699894 1.712576414935
H 5.291579015103 -1.104356957780 -0.606444163083
H 4.483364384884 -0.361533290325 1.473163120969
no_reorient
}
memory 8.166666666666666GB
set_num_threads(2)
psi4_io.set_default_path("/scratch/bdw2292/Psi4-25_27_Index_0-farH_in17")
set freeze_core True
set PROPERTIES_ORIGIN ["COM"]
set cubeprop_tasks ['esp']
set basis 6-311G**
E, wfn = properties('mp2',properties=['dipole'],return_wfn=True)
cubeprop(wfn)
fchk(wfn, "25_27_Index_0-dma.fchk")
clean()
--------------------------------------------------------------------------

    Molecular point group: c1
  Charge       = 0
  Multiplicity = 1
  Basis Set: 6-311G**
    Blend: 6-311G**
  Basis Set: (6-311G** AUX)
    Blend: CC-PVTZ-JKFIT

    Orbital Energies [Eh]
    ---------------------

    Doubly Occupied:

       1A    -20.512446     2A    -15.593781     3A    -15.547988
       4A    -11.353721     5A    -11.277053     6A    -11.276603
       7A    -11.271104     8A    -11.246340     9A    -11.236160
      10A    -11.234704    11A    -11.232903    12A    -11.232632
      13A    -11.230280    14A    -11.228597    15A     -1.378070
      16A     -1.259099    17A     -1.233851    18A     -1.142195
      19A     -1.024354    20A     -1.015651    21A     -0.986955
      22A     -0.953014    23A     -0.948849    24A     -0.856598
      25A     -0.828967    26A     -0.807631    27A     -0.748541
      28A     -0.695536    29A     -0.693361    30A     -0.668564
      31A     -0.662442    32A     -0.638059    33A     -0.633275
      34A     -0.621476    35A     -0.609084    36A     -0.594051
      37A     -0.584136    38A     -0.572899    39A     -0.566950
      40A     -0.547450    41A     -0.535633    42A     -0.525073
      43A     -0.510679    44A     -0.509457    45A     -0.504281
      46A     -0.495145    47A     -0.489463    48A     -0.416840
      49A     -0.401888    50A     -0.362317    51A     -0.334315
      52A     -0.313920

  @DF-RHF Final Energy:  -609.74592273472797

   => Energetics <=

    Nuclear Repulsion Energy =            885.5865079662665948
    One-Electron Energy =               -2586.3761047709631384
    Two-Electron Energy =                1091.0436740699683469
    Total Energy =                       -609.7459227347280830
  Basis Set: (6-311G** AUX)
    Blend: CC-PVTZ-RI
    Molecular point group: c1

    Geometry (in Angstrom), charge = 0, multiplicity = 1:

       Center              X                  Y                   Z               Mass
    ------------   -----------------  -----------------  -----------------  -----------------
         N           -0.272552034317     0.283397765068    -0.738619717919    14.003074004430
         C            0.850912553875    -0.268578901551    -0.144615435914    12.000000000000
         C            2.159972761180    -0.041954225017    -0.899560394140    12.000000000000
         N            3.298861800062    -0.624463820021    -0.223365115286    14.003074004430
         O            0.794414288688    -0.907283259366     0.903383392461    15.994914619570
         H            2.070321873304    -0.516794514462    -1.885002956064     1.007825032230
         H            2.297288855864     1.042982778353    -1.088539125863     1.007825032230
         C           -1.520788806943     0.218381291896    -0.053552147431    12.000000000000
         C           -4.007744760531     0.101823463628     1.217638657249    12.000000000000
         C           -3.251715041031    -1.057798381716     1.039437113114    12.000000000000
         C           -3.513329670153     1.321885954639     0.759485099193    12.000000000000
         C           -2.016281395530    -1.008792372318     0.398979011992    12.000000000000
         C           -2.270164577243     1.384446622022     0.131581407624    12.000000000000
         C           -0.197358434774     1.136851988240    -1.920471313454    12.000000000000
         C            4.445297529129    -0.641186870606    -1.119726533229    12.000000000000
         C            3.623311348309     0.111135951145     0.992418192736    12.000000000000
         H           -3.630918499626    -2.013538460456     1.391994031591     1.007825032230
         H           -4.089997227307     2.232794613656     0.898785571352     1.007825032230
         H           -1.430163733463    -1.909024444572     0.255569698761     1.007825032230
         H           -1.876446785434     2.342364775810    -0.197981686976     1.007825032230
         H           -1.191082341154     1.179589009515    -2.367024087592     1.007825032230
         H            0.129962848522     2.157648973182    -1.690032568143     1.007825032230
         H            0.483756953280     0.710498029335    -2.657599098871     1.007825032230
         H            4.213120799301    -1.238972257394    -2.005434236723     1.007825032230
         H            4.752989809223     0.368401287167    -1.449706731494     1.007825032230
         H            3.879168605261     1.167327266357     0.785483416621     1.007825032230
         H            2.778259288826     0.068639364571     1.677051599236     1.007825032230
         H           -4.973960853675     0.054577699894     1.712576414935     1.007825032230
         H            5.291579015103    -1.104356957780    -0.606444163083     1.007825032230
         H            4.483364384884    -0.361533290325     1.473163120969     1.007825032230

  Basis Set: 6-311G**
    Blend: 6-311G**
  Basis Set: (6-311G** AUX)
    Blend: CC-PVTZ-JKFIT
	 Reference Energy          =    -609.7459227347279693 [Eh]
	 Singles Energy            =      -0.0000000000000000 [Eh]
	 Same-Spin Energy          =      -0.5445462104018799 [Eh]
	 Opposite-Spin Energy      =      -1.5715412312980033 [Eh]
	 Correlation Energy        =      -2.1160874416998832 [Eh]
	 Total Energy              =    -611.8620101764278161 [Eh]

	 ================> DF-SCS-MP2 Energies <==================
	-----------------------------------------------------------
	 SCS Same-Spin Scale       =       0.3333333333333333 [-]
	 SCS Opposite-Spin Scale   =       1.2000000000000000 [-]
	 SCS Same-Spin Energy      =      -0.1815154034672933 [Eh]
	 SCS Opposite-Spin Energy  =      -1.8858494775576038 [Eh]
	 SCS Correlation Energy    =      -2.0673648810248970 [Eh]
	 SCS Total Energy          =    -611.8132876157528699 [Eh]
	-----------------------------------------------------------

  Dipole Moment: [D]
     X:    -0.2473      Y:     2.2038      Z:    -2.8045     Total:     3.5753

  Basis Set: 6-311G**
    Blend: 6-311G**
*** Psi4 exiting successfully. Buy a developer a beer!
