                               Psi4 1.5 release

  ==> Input File <==

--------------------------------------------------------------------------
molecule {
0 1
N -0.272552034317 0.283397765068 -0.738619717919
C 0.850912553875 -0.268578901551 -0.144615435914
C 2.159972761180 -0.041954225017 -0.899560394140
N 3.298861800062 -0.624463820021 -0.223365115286
O 0.794414288688 -0.907283259366 0.903383392461
H 2.070321873304 -0.516794514462 -1.885002956064
H 2.297288855864 1.042982778353 -1.088539125863
C -1.520788806943 0.218381291896 -0.053552147431
C -4.007744760531 0.101823463628 1.217638657249
C -3.251715041031 -1.057798381716 1.039437113114
C -3.513329670153 1.321885954639 0.759485099193
C -2.016281395530 -1.008792372318 0.398979011992
C -2.270164577243 1.384446622022 0.131581407624
C -0.197358434774 1.136851988240 -1.920471313454
C 4.445297529129 -0.641186870606 -1.119726533229
C 3.623311348309 0.111135951145 0.992418192736
H -3.630918499626 -2.013538460456 1.391994031591
H -4.089997227307 2.232794613656 0.898785571352
H -1.430163733463 -1.909024444572 0.255569698761
H -1.876446785434 2.342364775810 -0.197981686976
H -1.191082341154 1.179589009515 -2.367024087592
H 0.129962848522 2.157648973182 -1.690032568143
H 0.483756953280 0.710498029335 -2.657599098871
H 4.213120799301 -1.238972257394 -2.005434236723
H 4.752989809223 0.368401287167 -1.449706731494
H 3.879168605261 1.167327266357 0.785483416621
H 2.778259288826 0.068639364571 1.677051599236
H -4.973960853675 0.054577699894 1.712576414935
H 5.291579015103 -1.104356957780 -0.606444163083
H 4.483364384884 -0.361533290325 1.473163120969
}
memory 8.166666666666666GB
set_num_threads(2)
psi4_io.set_default_path("/scratch/bdw2292/Psi4-25_27_Index_0-farH_in17")
set maxiter 500
set freeze_core True
set PROPERTIES_ORIGIN ["COM"]
set cubeprop_tasks ['esp']
set basis aug-cc-pVTZ
E, wfn = properties('mp2',properties=['dipole'],return_wfn=True)
cubeprop(wfn)
fchk(wfn, "25_27_Index_0-esp.fchk")
oeprop(wfn,"GRID_ESP","WIBERG_LOWDIN_INDICES","MULLIKEN_CHARGES")
clean()
--------------------------------------------------------------------------

    Molecular point group: c1
  Charge       = 0
  Multiplicity = 1
  Basis Set: AUG-CC-PVTZ
    Blend: AUG-CC-PVTZ
  Basis Set: (AUG-CC-PVTZ AUX)
    Blend: AUG-CC-PVTZ-JKFIT

    Orbital Energies [Eh]
    ---------------------

    Doubly Occupied:

       1A    -20.517852     2A    -15.597691     3A    -15.553281
       4A    -11.354029     5A    -11.277464     6A    -11.277074
       7A    -11.272163     8A    -11.246909     9A    -11.237521
      10A    -11.235985    11A    -11.234369    12A    -11.233648
      13A    -11.231525    14A    -11.229962    15A     -1.378871
      16A     -1.260080    17A     -1.234922    18A     -1.142958
      19A     -1.024912    20A     -1.016416    21A     -0.987411
      22A     -0.953313    23A     -0.949424    24A     -0.857259
      25A     -0.829908    26A     -0.808456    27A     -0.749327
      28A     -0.696445    29A     -0.694402    30A     -0.669904
      31A     -0.663437    32A     -0.639225    33A     -0.634192
      34A     -0.622783    35A     -0.609704    36A     -0.594928
      37A     -0.584811    38A     -0.573774    39A     -0.567764
      40A     -0.548469    41A     -0.536658    42A     -0.526448
      43A     -0.511944    44A     -0.510412    45A     -0.505325
      46A     -0.496354    47A     -0.491249    48A     -0.419908
      49A     -0.404667    50A     -0.364678    51A     -0.335991
      52A     -0.315964

  @DF-RHF Final Energy:  -609.81729417507620

   => Energetics <=

    Nuclear Repulsion Energy =            885.5865079662665948
    One-Electron Energy =               -2586.3832667463157122
    Two-Electron Energy =                1090.9794646049726907
    Total Energy =                       -609.8172941750763130
  Basis Set: (AUG-CC-PVTZ AUX)
    Blend: AUG-CC-PVTZ-RI
    Molecular point group: c1

    Geometry (in Angstrom), charge = 0, multiplicity = 1:

       Center              X                  Y                   Z               Mass
    ------------   -----------------  -----------------  -----------------  -----------------
         N           -0.272552034317     0.283397765068    -0.738619717919    14.003074004430
         C            0.850912553875    -0.268578901551    -0.144615435914    12.000000000000
         C            2.159972761180    -0.041954225017    -0.899560394140    12.000000000000
         N            3.298861800062    -0.624463820021    -0.223365115286    14.003074004430
         O            0.794414288688    -0.907283259366     0.903383392461    15.994914619570
         H            2.070321873304    -0.516794514462    -1.885002956064     1.007825032230
         H            2.297288855864     1.042982778353    -1.088539125863     1.007825032230
         C           -1.520788806943     0.218381291896    -0.053552147431    12.000000000000
         C           -4.007744760531     0.101823463628     1.217638657249    12.000000000000
         C           -3.251715041031    -1.057798381716     1.039437113114    12.000000000000
         C           -3.513329670153     1.321885954639     0.759485099193    12.000000000000
         C           -2.016281395530    -1.008792372318     0.398979011992    12.000000000000
         C           -2.270164577243     1.384446622022     0.131581407624    12.000000000000
         C           -0.197358434774     1.136851988240    -1.920471313454    12.000000000000
         C            4.445297529129    -0.641186870606    -1.119726533229    12.000000000000
         C            3.623311348309     0.111135951145     0.992418192736    12.000000000000
         H           -3.630918499626    -2.013538460456     1.391994031591     1.007825032230
         H           -4.089997227307     2.232794613656     0.898785571352     1.007825032230
         H           -1.430163733463    -1.909024444572     0.255569698761     1.007825032230
         H           -1.876446785434     2.342364775810    -0.197981686976     1.007825032230
         H           -1.191082341154     1.179589009515    -2.367024087592     1.007825032230
         H            0.129962848522     2.157648973182    -1.690032568143     1.007825032230
         H            0.483756953280     0.710498029335    -2.657599098871     1.007825032230
         H            4.213120799301    -1.238972257394    -2.005434236723     1.007825032230
         H            4.752989809223     0.368401287167    -1.449706731494     1.007825032230
         H            3.879168605261     1.167327266357     0.785483416621     1.007825032230
         H            2.778259288826     0.068639364571     1.677051599236     1.007825032230
         H           -4.973960853675     0.054577699894     1.712576414935     1.007825032230
         H            5.291579015103    -1.104356957780    -0.606444163083     1.007825032230
         H            4.483364384884    -0.361533290325     1.473163120969     1.007825032230

  Basis Set: AUG-CC-PVTZ
    Blend: AUG-CC-PVTZ
  Basis Set: (AUG-CC-PVTZ AUX)
    Blend: AUG-CC-PVTZ-JKFIT
	 Reference Energy          =    -609.8172941750761993 [Eh]
	 Singles Energy            =      -0.0000000000000000 [Eh]
	 Same-Spin Energy          =      -0.6176471998063281 [Eh]
	 Opposite-Spin Energy      =      -1.8776766306199568 [Eh]
	 Correlation Energy        =      -2.4953238304262850 [Eh]
	 Total Energy              =    -612.3126180055024861 [Eh]

	 ================> DF-SCS-MP2 Energies <==================
	-----------------------------------------------------------
	 SCS Same-Spin Scale       =       0.3333333333333333 [-]
	 SCS Opposite-Spin Scale   =       1.2000000000000000 [-]
	 SCS Same-Spin Energy      =      -0.2058823999354427 [Eh]
	 SCS Opposite-Spin Energy  =      -2.2532119567439479 [Eh]
	 SCS Correlation Energy    =      -2.4590943566793908 [Eh]
	 SCS Total Energy          =    -612.2763885317556287 [Eh]
	-----------------------------------------------------------

  Dipole Moment: [D]
     X:    -0.1505      Y:     2.3191      Z:    -2.8768     Total:     3.6982

  Basis Set: AUG-CC-PVTZ
    Blend: AUG-CC-PVTZ

  Mulliken Charges: (a.u.)
   Center  Symbol    Alpha    Beta     Spin     Total
       1     N     3.34145  3.34145  0.00000  0.31710
       2     C     3.08041  3.08041  0.00000 -0.16082
       3     C     2.88465  2.88465  0.00000  0.23069
       4     N     3.57525  3.57525  0.00000 -0.15050
       5     O     4.41263  4.41263  0.00000 -0.82527
       6     H     0.29630  0.29630  0.00000  0.40741
       7     H     0.35658  0.35658  0.00000  0.28683
       8     C     2.38382  2.38382  0.00000  1.23236
       9     C     3.13634  3.13634  0.00000 -0.27267
      10     C     3.35900  3.35900  0.00000 -0.71800
      11     C     3.37792  3.37792  0.00000 -0.75584
      12     C     3.32726  3.32726  0.00000 -0.65452
      13     C     3.29524  3.29524  0.00000 -0.59048
      14     C     3.54809  3.54809  0.00000 -1.09617
      15     C     3.60890  3.60890  0.00000 -1.21780
      16     C     3.56085  3.56085  0.00000 -1.12171
      17     H     0.29999  0.29999  0.00000  0.40003
      18     H     0.27229  0.27229  0.00000  0.45541
      19     H     0.27231  0.27231  0.00000  0.45539
      20     H     0.34160  0.34160  0.00000  0.31680
      21     H     0.35048  0.35048  0.00000  0.29905
      22     H     0.30063  0.30063  0.00000  0.39873
      23     H     0.33109  0.33109  0.00000  0.33782
      24     H     0.33462  0.33462  0.00000  0.33077
      25     H     0.34689  0.34689  0.00000  0.30621
      26     H     0.34984  0.34984  0.00000  0.30032
      27     H     0.29089  0.29089  0.00000  0.41822
      28     H     0.27608  0.27608  0.00000  0.44784
      29     H     0.33976  0.33976  0.00000  0.32048
      30     H     0.34885  0.34885  0.00000  0.30231

   Total alpha = 52.00000, Total beta = 52.00000, Total charge = -0.00000

*** Psi4 exiting successfully. Buy a developer a beer!
