                               Psi4 1.5 release

  ==> Input File <==

--------------------------------------------------------------------------
molecule {
0 1
 N   -0.081547    0.440114   -0.393367
 C    0.954323    0.790910    0.510008
 C    2.379008    0.995354   -0.076622
 N    2.991655   -0.181480   -0.728916
 O    0.738134    0.950123    1.711260
 H    2.403054    1.844457   -0.781025
 H    3.052347    1.301008    0.743450
 C   -1.448503    0.336098    0.089717
 C   -4.115123    0.149661    1.015447
 C   -3.100903   -0.590439    1.636808
 C   -3.799802    0.990207   -0.059840
 C   -1.776115   -0.501739    1.188356
 C   -2.480773    1.093389   -0.524316
 C    0.144581    0.121648   -1.824545
 C    4.181472    0.186879   -1.518300
 C    3.328348   -1.231825    0.253575
 H   -3.339439   -1.243802    2.477886
 H   -4.584522    1.572716   -0.546209
 H   -0.996299   -1.077577    1.689568
 H   -2.255309    1.759851   -1.359344
 H   -0.730234   -0.358971   -2.264126
 H    0.354425    1.034300   -2.382349
 H    0.981079   -0.565072   -1.942236
 H    3.895993    0.911079   -2.298859
 H    4.964042    0.626981   -0.877185
 H    4.083499   -0.877528    0.975235
 H    2.420776   -1.531146    0.802833
 H   -5.145039    0.072743    1.369306
 H    4.581370   -0.706553   -2.025347
 H    3.709578   -2.122915   -0.270986
}
set optking {
  frozen_dihedral = ("
    1 2 3 4
    2 1 8 12
    8 1 2 3
    2 3 4 15
  ")
}
set {
  geom_maxiter 400
  g_convergence GAU_LOOSE
  dynamic_level 1
}
memory 8.166666666666666GB
set_num_threads(2)
psi4_io.set_default_path("/scratch/bdw2292/Psi4-25_27_Index_0-farH_in17")
for _ in range(1):
  try:
    set opt_coordinates both
    optimize('wb97x-d/6-311G')
    break
  except OptimizationConvergenceError:
    break
  else:
    try:
      set opt_coordinates cartesian
      optimize('wb97x-d/6-311G')
      break
    except OptimizationConvergenceError:
      pass
clean()
--------------------------------------------------------------------------

    Molecular point group: c1
  Charge       = 0
  Multiplicity = 1
  Basis Set: 6-311G
    Blend: 6-311G
  Basis Set: (6-311G AUX)
    Blend: CC-PVTZ-JKFIT
  @DF-RKS Final Energy:  -613.27872397429712
    Total Energy =                       -613.2787239742971224
    Molecular point group: c1
  Basis Set: 6-311G
    Blend: 6-311G
  Basis Set: (6-311G AUX)
    Blend: CC-PVTZ-JKFIT
  Basis Set: 6-311G
    Blend: 6-311G
  Basis Set: (6-311G AUX)
    Blend: CC-PVTZ-JKFIT
  @DF-RKS Final Energy:  -613.28758797912531
    Total Energy =                       -613.2875879791253055
  Basis Set: 6-311G
    Blend: 6-311G
  Basis Set: (6-311G AUX)
    Blend: CC-PVTZ-JKFIT
  Basis Set: 6-311G
    Blend: 6-311G
  @DF-RKS Final Energy:  -613.27845493777090
    Total Energy =                       -613.2784549377710164
  @DF-RKS Final Energy:  -613.28851073397027
    Total Energy =                       -613.2885107339703836
  @DF-RKS Final Energy:  -613.28878718079352
    Total Energy =                       -613.2887871807936335
  @DF-RKS Final Energy:  -613.28895127453063
    Total Energy =                       -613.2889512745306320
  @DF-RKS Final Energy:  -613.28895584412885
    Total Energy =                       -613.2889558441287363
  @DF-RKS Final Energy:  -613.28905865763863
    Total Energy =                       -613.2890586576386340
  @DF-RKS Final Energy:  -613.28905442804273
    Total Energy =                       -613.2890544280426184
  Basis Set: (6-311G AUX)
    Blend: CC-PVTZ-JKFIT
  Basis Set: 6-311G
    Blend: 6-311G
  Basis Set: (6-311G AUX)
    Blend: CC-PVTZ-JKFIT
  @DF-RKS Final Energy:  -613.28905865110903
    Total Energy =                       -613.2890586511089168
  Basis Set: 6-311G
    Blend: 6-311G
  Basis Set: (6-311G AUX)
    Blend: CC-PVTZ-JKFIT
  Charge       = 0
  Multiplicity = 1
  Basis Set: 6-311G
    Blend: 6-311G
  Basis Set: (6-311G AUX)
    Blend: CC-PVTZ-JKFIT

    Orbital Energies [Eh]
    ---------------------

    Doubly Occupied:

       1A    -19.209404     2A    -14.474883     3A    -14.441203
       4A    -10.397747     5A    -10.334530     6A    -10.324627
       7A    -10.312649     8A    -10.312279     9A    -10.305624
      10A    -10.293165    11A    -10.292345    12A    -10.290045
      13A    -10.288744    14A    -10.287946    15A     -1.149042
      16A     -1.051345    17A     -1.038801    18A     -0.960494
      19A     -0.864877    20A     -0.854896    21A     -0.835438
      22A     -0.820433    23A     -0.806071    24A     -0.731816
      25A     -0.711456    26A     -0.700784    27A     -0.654374
      28A     -0.604872    29A     -0.598753    30A     -0.585957
      31A     -0.576019    32A     -0.563514    33A     -0.555129
      34A     -0.533624    35A     -0.530091    36A     -0.519250
      37A     -0.509813    38A     -0.494887    39A     -0.490547
      40A     -0.485747    41A     -0.477916    42A     -0.471317
      43A     -0.462861    44A     -0.461750    45A     -0.445924
      46A     -0.440641    47A     -0.432184    48A     -0.357156
      49A     -0.338083    50A     -0.325086    51A     -0.300034
      52A     -0.298423

  @DF-RKS Final Energy:  -613.28906730147150

   => Energetics <=

    Nuclear Repulsion Energy =            894.1378226553538298
    One-Electron Energy =               -2604.5837563687423426
    Two-Electron Energy =                1157.6985810255937395
    DFT Exchange-Correlation Energy =     -60.5208604522166240
    Empirical Dispersion Energy =          -0.0208541614601240
    VV10 Nonlocal Energy =                  0.0000000000000000
    Total Energy =                       -613.2890673014715048

  Dipole Moment: [D]
     X:     1.0365      Y:    -1.4579      Z:    -3.3077     Total:     3.7604

    Molecular point group: c1
  Basis Set: 6-311G
    Blend: 6-311G
  Basis Set: (6-311G AUX)
    Blend: CC-PVTZ-JKFIT

  -Total Gradient:
     Atom            X                  Y                   Z
    ------   -----------------  -----------------  -----------------
       1        0.000443148858    -0.003284419037     0.001169882571
       2       -0.000725575787     0.001501492192    -0.001722936793
       3        0.000723796120     0.000224052041     0.001875468079
       4        0.000105695538     0.000085170926    -0.000232405871
       5       -0.000004661021    -0.000072388367    -0.000029173929
       6        0.000008637590    -0.000012546108     0.000009329428
       7        0.000012141526    -0.000009035349    -0.000009030377
       8       -0.000052359392     0.002217164053     0.000084722493
       9        0.000015461050     0.000001694588     0.000033412746
      10       -0.000063001328     0.000024989221    -0.000027871576
      11        0.000026187582     0.000021919740    -0.000023485747
      12       -0.000093820306    -0.000654182746    -0.000409353208
      13       -0.000184494577    -0.000049450622    -0.000019811525
      14        0.000081129803    -0.000094718315     0.000064621656
      15       -0.000474730804    -0.000046769025    -0.000729072170
      16        0.000020762340    -0.000053235849     0.000036928991
      17       -0.000000654220     0.000014739243     0.000002254356
      18       -0.000013844239     0.000014777871     0.000014145165
      19       -0.000006778091    -0.000009758385     0.000007478470
      20       -0.000016791175     0.000009994130     0.000032587197
      21        0.000021150902     0.000050297989     0.000043987243
      22        0.000003856277    -0.000002641520    -0.000063717514
      23        0.000047064234     0.000016008353    -0.000002552408
      24       -0.000015961804    -0.000027198393     0.000011260029
      25       -0.000014933770    -0.000026524495     0.000014184941
      26       -0.000015003869     0.000005543121    -0.000002770616
      27       -0.000003715421    -0.000011400001    -0.000006570001
      28       -0.000011493623     0.000011247690    -0.000006660303
      29       -0.000025611383    -0.000023166505     0.000020942751
      30       -0.000009343286    -0.000017184804     0.000011015249

  **** Optimization is complete! (in 2 steps) ****
    Final optimized geometry and variables:
    Molecular point group: c1

    Geometry (in Angstrom), charge = 0, multiplicity = 1:

    N           -0.044242864815     0.108447039863    -0.466441998745
    C            0.966278120527     0.665503402379     0.282365098716
    C            2.349447694620     0.769485428608    -0.345536990334
    N            2.923835941761    -0.531410970756    -0.693572619399
    O            0.787648826599     1.086875453565     1.440305750842
    H            2.290634115586     1.369445672990    -1.257310206969
    H            2.962559484245     1.317943198926     0.381550209316
    C           -1.383376052979     0.079524696263     0.046013047970
    C           -4.014861799826    -0.056059782458     0.977491464946
    C           -2.966388140160    -0.546482918620     1.754942584479
    C           -3.742421027001     0.504238393632    -0.267396740604
    C           -1.656111053547    -0.486808823921     1.292373671722
    C           -2.430836549316     0.576703068081    -0.731196277817
    C            0.149035657986    -0.271069392535    -1.872184639772
    C            4.090803001059    -0.422113870042    -1.564615915353
    C            3.151545146808    -1.387255227121     0.469561859788
    H           -3.168550247282    -0.982114514879     2.723887522774
    H           -4.547067658656     0.892142952798    -0.877247231307
    H           -0.843049679099    -0.855026147317     1.897505125059
    H           -2.222574787483     1.025973390155    -1.692408441901
    H           -0.597664709295    -1.016727463409    -2.135058752856
    H            0.039354875591     0.584925740857    -2.544918224211
    H            1.138073598494    -0.707349930547    -1.984322873599
    H            3.828239964185     0.133032495950    -2.466122650570
    H            4.940232253440     0.086497481498    -1.078571173674
    H            3.916802093735    -0.976845757869     1.148539831501
    H            2.227048779665    -1.505399749836     1.033343081728
    H           -5.032356695803    -0.108694419020     1.339645673244
    H            4.415313270939    -1.418908626923    -1.862913321072
    H            3.473771762460    -2.373078731816     0.135443579458

*** Psi4 exiting successfully. Buy a developer a beer!
