                               Psi4 1.5 release

  ==> Input File <==

--------------------------------------------------------------------------
molecule {
0 1
 N   -0.285514    0.470130   -0.670320
 C    0.884553    0.085666    0.035487
 C    2.247669    0.366141   -0.680441
 N    3.356647   -0.563367   -0.337492
 O    0.816315   -0.365023    1.182116
 H    2.171234    0.379477   -1.778600
 H    2.585676    1.383754   -0.413930
 C   -1.581352    0.341512   -0.028290
 C   -4.125076    0.117531    1.185646
 C   -3.277025   -0.995643    1.118645
 C   -3.704877    1.342116    0.650559
 C   -2.013476   -0.894818    0.520401
 C   -2.445095    1.464549    0.047184
 C   -0.303465    0.722252   -2.131330
 C    4.486730   -0.428497   -1.279232
 C    3.835188   -0.357340    1.047991
 H   -3.598857   -1.952371    1.533670
 H   -4.360995    2.213087    0.698870
 H   -1.361299   -1.769092    0.482657
 H   -2.134169    2.428238   -0.361851
 H   -1.325051    0.827787   -2.498921
 H    0.231944    1.643110   -2.364497
 H    0.150389   -0.112347   -2.667017
 H    4.145132   -0.663832   -2.300771
 H    4.908043    0.591013   -1.257516
 H    4.251889    0.654196    1.189399
 H    2.991049   -0.502055    1.738496
 H   -5.107925    0.030792    1.652895
 H    5.272643   -1.156263   -1.019099
 H    4.599151   -1.112229    1.295165
}
set optking {
  frozen_dihedral = ("
    1 2 3 4
    2 1 8 12
    8 1 2 3
    2 3 4 15
  ")
}
set {
  geom_maxiter 400
  g_convergence GAU_LOOSE
  dynamic_level 1
}
memory 8.166666666666666GB
set_num_threads(2)
psi4_io.set_default_path("/scratch/bdw2292/Psi4-25_27_Index_0-farH_in17")
for _ in range(1):
  try:
    set opt_coordinates both
    optimize('wb97x-d/6-311G')
    break
  except OptimizationConvergenceError:
    break
  else:
    try:
      set opt_coordinates cartesian
      optimize('wb97x-d/6-311G')
      break
    except OptimizationConvergenceError:
      pass
clean()
--------------------------------------------------------------------------

    Molecular point group: c1
  Charge       = 0
  Multiplicity = 1
  Basis Set: 6-311G
    Blend: 6-311G
  Basis Set: (6-311G AUX)
    Blend: CC-PVTZ-JKFIT
  @DF-RKS Final Energy:  -613.27135211816324
    Total Energy =                       -613.2713521181632359
    Molecular point group: c1
  Basis Set: 6-311G
    Blend: 6-311G
  Basis Set: (6-311G AUX)
    Blend: CC-PVTZ-JKFIT
  Basis Set: 6-311G
    Blend: 6-311G
  Basis Set: (6-311G AUX)
    Blend: CC-PVTZ-JKFIT
  @DF-RKS Final Energy:  -613.27890637582107
    Total Energy =                       -613.2789063758211796
  Basis Set: 6-311G
    Blend: 6-311G
  Basis Set: (6-311G AUX)
    Blend: CC-PVTZ-JKFIT
  Basis Set: 6-311G
    Blend: 6-311G
  @DF-RKS Final Energy:  -613.28004351494769
    Total Energy =                       -613.2800435149475788
  @DF-RKS Final Energy:  -613.28028916154119
    Total Energy =                       -613.2802891615411909
  @DF-RKS Final Energy:  -613.28041279348383
    Total Energy =                       -613.2804127934838334
  @DF-RKS Final Energy:  -613.28052695186761
    Total Energy =                       -613.2805269518677278
  @DF-RKS Final Energy:  -613.28041423584739
    Total Energy =                       -613.2804142358473882
  @DF-RKS Final Energy:  -613.28052694219980
    Total Energy =                       -613.2805269421996854
  Basis Set: (6-311G AUX)
    Blend: CC-PVTZ-JKFIT
  Basis Set: 6-311G
    Blend: 6-311G
  Basis Set: (6-311G AUX)
    Blend: CC-PVTZ-JKFIT
  @DF-RKS Final Energy:  -613.28053069334442
    Total Energy =                       -613.2805306933445308
  Basis Set: 6-311G
    Blend: 6-311G
  Basis Set: (6-311G AUX)
    Blend: CC-PVTZ-JKFIT
  Charge       = 0
  Multiplicity = 1
  Basis Set: 6-311G
    Blend: 6-311G
  Basis Set: (6-311G AUX)
    Blend: CC-PVTZ-JKFIT

    Orbital Energies [Eh]
    ---------------------

    Doubly Occupied:

       1A    -19.212086     2A    -14.479518     3A    -14.427646
       4A    -10.402707     5A    -10.338282     6A    -10.333003
       7A    -10.326582     8A    -10.301056     9A    -10.297305
      10A    -10.295794    11A    -10.292971    12A    -10.292254
      13A    -10.290965    14A    -10.280886    15A     -1.153734
      16A     -1.054945    17A     -1.027166    18A     -0.964783
      19A     -0.869396    20A     -0.858357    21A     -0.838323
      22A     -0.814602    23A     -0.801054    24A     -0.735820
      25A     -0.712931    26A     -0.691653    27A     -0.652413
      28A     -0.612468    29A     -0.600685    30A     -0.584504
      31A     -0.576559    32A     -0.557915    33A     -0.554153
      34A     -0.538988    35A     -0.536880    36A     -0.520558
      37A     -0.514811    38A     -0.503764    39A     -0.496439
      40A     -0.477116    41A     -0.470747    42A     -0.467113
      43A     -0.453025    44A     -0.445968    45A     -0.443346
      46A     -0.440188    47A     -0.434429    48A     -0.359416
      49A     -0.340846    50A     -0.328361    51A     -0.306173
      52A     -0.285177

  @DF-RKS Final Energy:  -613.28054179339961

   => Energetics <=

    Nuclear Repulsion Energy =            881.7967768020901076
    One-Electron Energy =               -2579.9083980186023837
    Two-Electron Energy =                1145.3661962316325571
    DFT Exchange-Correlation Energy =     -60.5156853282203286
    Empirical Dispersion Energy =          -0.0194314802996132
    VV10 Nonlocal Energy =                  0.0000000000000000
    Total Energy =                       -613.2805417933997205

  Dipole Moment: [D]
     X:    -0.4042      Y:     1.6548      Z:    -3.6450     Total:     4.0234

    Molecular point group: c1
  Basis Set: 6-311G
    Blend: 6-311G
  Basis Set: (6-311G AUX)
    Blend: CC-PVTZ-JKFIT

  -Total Gradient:
     Atom            X                  Y                   Z
    ------   -----------------  -----------------  -----------------
       1        0.000007717104    -0.001872522522    -0.000257038212
       2        0.000400826336     0.002444154956     0.001318509009
       3        0.000140416012     0.000055257430    -0.000168482070
       4       -0.001394295572    -0.002706071475    -0.001903889959
       5        0.000039789693    -0.000106093301     0.000026603535
       6        0.000059285413    -0.000019367902     0.000046468764
       7       -0.000028201718    -0.000001118545     0.000005770894
       8       -0.000217442823     0.000336209160    -0.000392666384
       9        0.000025577858    -0.000070847318     0.000038262774
      10       -0.000062593632     0.000028002462     0.000020761788
      11        0.000069547928     0.000021454265    -0.000042435026
      12        0.000184151033     0.000201810703     0.000323428204
      13       -0.000034309578     0.000042832213     0.000021968011
      14       -0.000017560139    -0.000007490321     0.000041361020
      15        0.000912867270     0.001641078760     0.001051765371
      16       -0.000007125345    -0.000025879813     0.000017131130
      17        0.000008359997     0.000000575898     0.000011184352
      18       -0.000001752502     0.000006352534     0.000019825910
      19        0.000005782595    -0.000003962317     0.000005768377
      20        0.000025866304    -0.000004827135    -0.000005477672
      21       -0.000155097929     0.000049969909    -0.000012171341
      22        0.000009704790     0.000099775642     0.000019995116
      23        0.000025964022    -0.000116797657    -0.000077571988
      24        0.000009160295     0.000001612848    -0.000012356690
      25        0.000002064636    -0.000002271867    -0.000004809815
      26       -0.000000083923    -0.000003045097    -0.000008073829
      27        0.000002989604     0.000003917030    -0.000001661448
      28        0.000007765566     0.000003742915     0.000009684595
      29        0.000008835849     0.000000893751    -0.000021999399
      30        0.000006968719    -0.000007054615    -0.000006926236

  **** Optimization is complete! (in 3 steps) ****
    Final optimized geometry and variables:
    Molecular point group: c1

    Geometry (in Angstrom), charge = 0, multiplicity = 1:

    N           -0.239479464741     0.270663494272    -0.736146199251
    C            0.885797108014    -0.021942589508     0.009570998413
    C            2.221925713279     0.138959989482    -0.699922902515
    N            3.274347447785    -0.745115934189    -0.210029347457
    O            0.799956183514    -0.363396645659     1.200693043940
    H            2.104763143460    -0.069649096341    -1.760890040488
    H            2.508074028566     1.209154921909    -0.622363795891
    C           -1.533338355761     0.246877093413    -0.111216137787
    C           -4.074170581465     0.211432530559     1.046607994759
    C           -3.236470901201    -0.897458880047     1.154136769159
    C           -3.633852508269     1.343087690468     0.364696786738
    C           -1.971197312575    -0.885622451495     0.575346885671
    C           -2.363467256646     1.365032778546    -0.205275176205
    C           -0.170129110968     0.669724640354    -2.147360906342
    C            4.411527309458    -0.762654813883    -1.130866819160
    C            3.718696031817    -0.460617743409     1.160052486848
    H           -3.567753138920    -1.777055062156     1.688697156926
    H           -4.271134542346     2.213334095121     0.285743759394
    H           -1.315748020929    -1.736724639389     0.669138065440
    H           -2.011663097415     2.254475136478    -0.711122785954
    H           -1.176792712328     0.883264235954    -2.493846681563
    H            0.438026411662     1.564543731149    -2.290323898198
    H            0.227796794243    -0.135204127311    -2.767943478022
    H            4.089058020558    -1.068932795527    -2.127026090239
    H            4.908516898642     0.221199444788    -1.210868027596
    H            4.201750345018     0.531265611832     1.233707630772
    H            2.870926846973    -0.496233984189     1.833222516683
    H           -5.057906521116     0.195779674775     1.495130275956
    H            5.146185298569    -1.485847765828    -0.778621318386
    H            4.443415310501    -1.217395150303     1.460220799103

*** Psi4 exiting successfully. Buy a developer a beer!
