                               Psi4 1.5 release

  ==> Input File <==

--------------------------------------------------------------------------
molecule {
0 1
 N    0.010361    0.307332   -0.161735
 C    0.710208   -0.880085   -0.295923
 C    2.199482   -0.997309   -0.648437
 N    3.244426   -0.025639   -0.307454
 O    0.155466   -1.967885   -0.046368
 H    2.465599   -1.929047   -0.157274
 H    2.225236   -1.217548   -1.738794
 C   -1.358850    0.238937    0.307624
 C   -3.995569    0.295487    1.205715
 C   -3.634244   -0.529128    0.140581
 C   -3.032530    1.087974    1.825250
 C   -2.319176   -0.558101   -0.314373
 C   -1.712637    1.054900    1.378994
 C    0.177952    1.410565   -1.130720
 C    4.552808   -0.653910   -0.523097
 C    3.226023    1.331236   -0.830259
 H   -4.376491   -1.155929   -0.334630
 H   -3.302847    1.722550    2.658201
 H   -2.032562   -1.212911   -1.122211
 H   -0.947382    1.649085    1.859688
 H   -0.739931    1.507639   -1.711753
 H    0.367378    2.359139   -0.631393
 H    0.984181    1.198127   -1.821995
 H    4.610482   -1.594846    0.024524
 H    4.750793   -0.864235   -1.589540
 H    3.123727    1.381873   -1.929904
 H    2.442148    1.918645   -0.365233
 H   -5.019687    0.313615    1.553214
 H    5.340573   -0.000643   -0.148792
 H    4.173437    1.803261   -0.569473
}
memory 8.166666666666666GB
set_num_threads(2)
psi4_io.set_default_path("/scratch/bdw2292/Psi4-25_27_Index_0-farH_in17")
set freeze_core True
E, wfn = energy('wb97x-d/6-311+G*',return_wfn=True)
oeprop(wfn,"WIBERG_LOWDIN_INDICES")
clean()
--------------------------------------------------------------------------

    Molecular point group: c1

    Geometry (in Angstrom), charge = 0, multiplicity = 1:

       Center              X                  Y                   Z               Mass
    ------------   -----------------  -----------------  -----------------  -----------------
         N            0.010360984402     0.307332083418    -0.161735030368    14.003074004430
         C            0.710207984402    -0.880084916582    -0.295923030368    12.000000000000
         C            2.199481984402    -0.997308916582    -0.648437030368    12.000000000000
         N            3.244425984402    -0.025638916582    -0.307454030368    14.003074004430
         O            0.155465984402    -1.967884916582    -0.046368030368    15.994914619570
         H            2.465598984402    -1.929046916582    -0.157274030368     1.007825032230
         H            2.225235984402    -1.217547916582    -1.738794030368     1.007825032230
         C           -1.358850015598     0.238937083418     0.307623969632    12.000000000000
         C           -3.995569015598     0.295487083418     1.205714969632    12.000000000000
         C           -3.634244015598    -0.529127916582     0.140580969632    12.000000000000
         C           -3.032530015598     1.087974083418     1.825249969632    12.000000000000
         C           -2.319176015598    -0.558100916582    -0.314373030368    12.000000000000
         C           -1.712637015598     1.054900083418     1.378993969632    12.000000000000
         C            0.177951984402     1.410565083418    -1.130720030368    12.000000000000
         C            4.552807984402    -0.653909916582    -0.523097030368    12.000000000000
         C            3.226022984402     1.331236083418    -0.830259030368    12.000000000000
         H           -4.376491015598    -1.155928916582    -0.334630030368     1.007825032230
         H           -3.302847015598     1.722550083418     2.658200969632     1.007825032230
         H           -2.032562015598    -1.212910916582    -1.122211030368     1.007825032230
         H           -0.947382015598     1.649085083418     1.859687969632     1.007825032230
         H           -0.739931015598     1.507639083418    -1.711753030368     1.007825032230
         H            0.367377984402     2.359139083418    -0.631393030368     1.007825032230
         H            0.984180984402     1.198127083418    -1.821995030368     1.007825032230
         H            4.610481984402    -1.594845916582     0.024523969632     1.007825032230
         H            4.750792984402    -0.864234916582    -1.589540030368     1.007825032230
         H            3.123726984402     1.381873083418    -1.929904030368     1.007825032230
         H            2.442147984402     1.918645083418    -0.365233030368     1.007825032230
         H           -5.019687015598     0.313615083418     1.553213969632     1.007825032230
         H            5.340572984402    -0.000642916582    -0.148792030368     1.007825032230
         H            4.173436984402     1.803261083418    -0.569473030368     1.007825032230

  Charge       = 0
  Multiplicity = 1
  Basis Set: 6-311+G*
    Blend: 6-311+G*
  Basis Set: (6-311+G* AUX)
    Blend: HEAVY-AUG-CC-PVTZ-JKFIT

    Orbital Energies [Eh]
    ---------------------

    Doubly Occupied:

       1A    -19.213337     2A    -14.472681     3A    -14.435859
       4A    -10.398073     5A    -10.329330     6A    -10.325008
       7A    -10.324795     8A    -10.307198     9A    -10.305135
      10A    -10.292675    11A    -10.292052    12A    -10.291361
      13A    -10.290734    14A    -10.290047    15A     -1.137824
      16A     -1.044458    17A     -1.028661    18A     -0.957538
      19A     -0.856914    20A     -0.853048    21A     -0.838792
      22A     -0.810508    23A     -0.805726    24A     -0.731027
      25A     -0.711772    26A     -0.701066    27A     -0.651430
      28A     -0.604956    29A     -0.599739    30A     -0.583091
      31A     -0.575700    32A     -0.560528    33A     -0.550892
      34A     -0.532738    35A     -0.527758    36A     -0.522049
      37A     -0.512237    38A     -0.510080    39A     -0.503307
      40A     -0.488041    41A     -0.471138    42A     -0.468317
      43A     -0.458739    44A     -0.449222    45A     -0.446372
      46A     -0.435237    47A     -0.432783    48A     -0.351523
      49A     -0.344782    50A     -0.331368    51A     -0.319546
      52A     -0.297834

  @DF-RKS Final Energy:  -613.43560940325688

   => Energetics <=

    Nuclear Repulsion Energy =            885.6027619683214880
    One-Electron Energy =               -2587.8642774230165742
    Two-Electron Energy =                1149.3649802679603908
    DFT Exchange-Correlation Energy =     -60.5184793500679561
    Empirical Dispersion Energy =          -0.0205948664541386
    VV10 Nonlocal Energy =                  0.0000000000000000
    Total Energy =                       -613.4356094032569899

  Dipole Moment: [D]
     X:     0.9224      Y:     3.1095      Z:    -1.7433     Total:     3.6822

*** Psi4 exiting successfully. Buy a developer a beer!
