                               Psi4 1.5 release

  ==> Input File <==

--------------------------------------------------------------------------
molecule {
0 1
 N    0.074114   -0.382193   -0.245234
 C    0.822289   -0.308446    0.917719
 C    2.336486   -0.483824    0.872769
 N    3.100456    0.471303    0.064945
 O    0.292168   -0.018908    2.004856
 H    2.640190   -0.348956    1.907310
 H    2.581796   -1.533260    0.604686
 C   -1.338042   -0.089121   -0.191876
 C   -4.071653    0.455578   -0.235659
 C   -3.554665   -0.468980    0.671439
 C   -3.216902    1.110226   -1.120297
 C   -2.190898   -0.748413    0.692847
 C   -1.850150    0.841763   -1.094167
 C    0.438938   -1.267960   -1.362015
 C    4.527117    0.382813    0.359468
 C    2.833517    0.640661   -1.353418
 H   -4.212634   -0.972160    1.366951
 H   -3.609430    1.834637   -1.821174
 H   -1.784776   -1.446341    1.408473
 H   -1.173329    1.358558   -1.761824
 H   -0.216820   -2.147208   -1.362870
 H    0.326929   -0.748858   -2.317798
 H    1.469179   -1.603618   -1.270208
 H    4.690614    0.453848    1.435163
 H    4.979450   -0.561139    0.003168
 H    3.119272   -0.232304   -1.968120
 H    1.784515    0.869763   -1.520307
 H   -5.131918    0.668471   -0.248139
 H    5.052425    1.211732   -0.115866
 H    3.416122    1.493231   -1.706440
}
memory 8.166666666666666GB
set_num_threads(2)
psi4_io.set_default_path("/scratch/bdw2292/Psi4-25_27_Index_0-farH_in17")
set freeze_core True
E, wfn = energy('wb97x-d/6-311+G*',return_wfn=True)
oeprop(wfn,"WIBERG_LOWDIN_INDICES")
clean()
--------------------------------------------------------------------------

    Molecular point group: c1

    Geometry (in Angstrom), charge = 0, multiplicity = 1:

       Center              X                  Y                   Z               Mass
    ------------   -----------------  -----------------  -----------------  -----------------
         N            0.074114078290    -0.382193058934    -0.245233887376    14.003074004430
         C            0.822289078290    -0.308446058934     0.917719112624    12.000000000000
         C            2.336486078290    -0.483824058934     0.872769112624    12.000000000000
         N            3.100456078290     0.471302941066     0.064945112624    14.003074004430
         O            0.292168078290    -0.018908058934     2.004856112624    15.994914619570
         H            2.640190078290    -0.348956058934     1.907310112624     1.007825032230
         H            2.581796078290    -1.533260058934     0.604686112624     1.007825032230
         C           -1.338041921710    -0.089121058934    -0.191875887376    12.000000000000
         C           -4.071652921710     0.455577941066    -0.235658887376    12.000000000000
         C           -3.554664921710    -0.468980058934     0.671439112624    12.000000000000
         C           -3.216901921710     1.110225941066    -1.120296887376    12.000000000000
         C           -2.190897921710    -0.748413058934     0.692847112624    12.000000000000
         C           -1.850149921710     0.841762941066    -1.094166887376    12.000000000000
         C            0.438938078290    -1.267960058934    -1.362014887376    12.000000000000
         C            4.527117078290     0.382812941066     0.359468112624    12.000000000000
         C            2.833517078290     0.640660941066    -1.353417887376    12.000000000000
         H           -4.212633921710    -0.972160058934     1.366951112624     1.007825032230
         H           -3.609429921710     1.834636941066    -1.821173887376     1.007825032230
         H           -1.784775921710    -1.446341058934     1.408473112624     1.007825032230
         H           -1.173328921710     1.358557941066    -1.761823887376     1.007825032230
         H           -0.216819921710    -2.147208058934    -1.362869887376     1.007825032230
         H            0.326929078290    -0.748858058934    -2.317797887376     1.007825032230
         H            1.469179078290    -1.603618058934    -1.270207887376     1.007825032230
         H            4.690614078290     0.453847941066     1.435163112624     1.007825032230
         H            4.979450078290    -0.561139058934     0.003168112624     1.007825032230
         H            3.119272078290    -0.232304058934    -1.968119887376     1.007825032230
         H            1.784515078290     0.869762941066    -1.520306887376     1.007825032230
         H           -5.131917921710     0.668470941066    -0.248138887376     1.007825032230
         H            5.052425078290     1.211731941066    -0.115865887376     1.007825032230
         H            3.416122078290     1.493230941066    -1.706439887376     1.007825032230

  Charge       = 0
  Multiplicity = 1
  Basis Set: 6-311+G*
    Blend: 6-311+G*
  Basis Set: (6-311+G* AUX)
    Blend: HEAVY-AUG-CC-PVTZ-JKFIT

    Orbital Energies [Eh]
    ---------------------

    Doubly Occupied:

       1A    -19.213513     2A    -14.474120     3A    -14.433847
       4A    -10.395178     5A    -10.331583     6A    -10.328417
       7A    -10.322790     8A    -10.304918     9A    -10.304358
      10A    -10.295080    11A    -10.294173    12A    -10.292606
      13A    -10.292039    14A    -10.291265    15A     -1.136782
      16A     -1.047323    17A     -1.027452    18A     -0.959150
      19A     -0.860672    20A     -0.854721    21A     -0.838047
      22A     -0.811535    23A     -0.806199    24A     -0.731711
      25A     -0.712024    26A     -0.698001    27A     -0.652891
      28A     -0.606674    29A     -0.596810    30A     -0.586583
      31A     -0.578413    32A     -0.561122    33A     -0.552342
      34A     -0.534806    35A     -0.527791    36A     -0.526688
      37A     -0.513826    38A     -0.501761    39A     -0.501232
      40A     -0.483335    41A     -0.472020    42A     -0.466408
      43A     -0.459287    44A     -0.456566    45A     -0.451100
      46A     -0.439259    47A     -0.436506    48A     -0.352738
      49A     -0.346616    50A     -0.332335    51A     -0.316741
      52A     -0.293639

  @DF-RKS Final Energy:  -613.44887530639721

   => Energetics <=

    Nuclear Repulsion Energy =            893.3014594961807688
    One-Electron Energy =               -2603.2253730611955689
    Two-Electron Energy =                1157.0169852889991944
    DFT Exchange-Correlation Energy =     -60.5205821206894399
    Empirical Dispersion Energy =          -0.0213649096921515
    VV10 Nonlocal Energy =                  0.0000000000000000
    Total Energy =                       -613.4488753063972126

  Dipole Moment: [D]
     X:     0.8791      Y:    -1.5786      Z:    -3.4656     Total:     3.9083

*** Psi4 exiting successfully. Buy a developer a beer!
