                               Psi4 1.5 release

  ==> Input File <==

--------------------------------------------------------------------------
molecule {
0 1
 N   -0.059224    0.292709   -0.309948
 C    0.927874    0.846023    0.550230
 C    2.404303    0.988168    0.071696
 N    2.989199    0.013830   -0.874239
 O    0.620842    1.253635    1.670825
 H    2.552790    1.996818   -0.350802
 H    3.048629    0.986949    0.969051
 C   -1.445175    0.264219    0.137115
 C   -4.134370    0.258159    1.024522
 C   -3.135449   -0.342750    1.800665
 C   -3.793294    0.873711   -0.186258
 C   -1.800847   -0.340321    1.372909
 C   -2.463585    0.891379   -0.631056
 C    0.209713   -0.224198   -1.673670
 C    4.264505    0.499203   -1.439082
 C    3.195633   -1.299201   -0.221500
 H   -3.393735   -0.818204    2.748557
 H   -4.566407    1.348088   -0.793644
 H   -1.034131   -0.803143    1.996740
 H   -2.220268    1.396141   -1.568332
 H   -0.708908   -0.358040   -2.244197
 H    0.845776    0.464398   -2.228535
 H    0.700464   -1.194487   -1.617732
 H    4.089641    1.440839   -1.985224
 H    5.014135    0.669318   -0.647542
 H    3.933690   -1.228902    0.595599
 H    2.242971   -1.669465    0.191461
 H   -5.172137    0.250495    1.363641
 H    4.653376   -0.235585   -2.163030
 H    3.544064   -2.031318   -0.968346
}
set optking {
  frozen_dihedral = ("
    1 2 3 4
    2 1 8 12
    8 1 2 3
    2 3 4 15
  ")
}
set {
  geom_maxiter 400
  g_convergence GAU_LOOSE
  dynamic_level 1
}
memory 8.166666666666666GB
set_num_threads(2)
psi4_io.set_default_path("/scratch/bdw2292/Psi4-25_27_Index_0-farH_in17")
for _ in range(1):
  try:
    set opt_coordinates both
    optimize('wb97x-d/6-311G')
    break
  except OptimizationConvergenceError:
    break
  else:
    try:
      set opt_coordinates cartesian
      optimize('wb97x-d/6-311G')
      break
    except OptimizationConvergenceError:
      pass
clean()
--------------------------------------------------------------------------

    Molecular point group: c1
  Charge       = 0
  Multiplicity = 1
  Basis Set: 6-311G
    Blend: 6-311G
  Basis Set: (6-311G AUX)
    Blend: CC-PVTZ-JKFIT
  @DF-RKS Final Energy:  -613.27337178025084
    Total Energy =                       -613.2733717802508409
    Molecular point group: c1
  Basis Set: 6-311G
    Blend: 6-311G
  Basis Set: (6-311G AUX)
    Blend: CC-PVTZ-JKFIT
  Basis Set: 6-311G
    Blend: 6-311G
  Basis Set: (6-311G AUX)
    Blend: CC-PVTZ-JKFIT
  @DF-RKS Final Energy:  -613.28149285312213
    Total Energy =                       -613.2814928531221312
  Basis Set: 6-311G
    Blend: 6-311G
  Basis Set: (6-311G AUX)
    Blend: CC-PVTZ-JKFIT
  Basis Set: 6-311G
    Blend: 6-311G
  @DF-RKS Final Energy:  -613.28243145498482
    Total Energy =                       -613.2824314549848168
  @DF-RKS Final Energy:  -613.28254701031233
    Total Energy =                       -613.2825470103123280
  @DF-RKS Final Energy:  -613.28267753039893
    Total Energy =                       -613.2826775303990416
  @DF-RKS Final Energy:  -613.28272789497316
    Total Energy =                       -613.2827278949732772
  @DF-RKS Final Energy:  -613.28274517853185
    Total Energy =                       -613.2827451785319681
  @DF-RKS Final Energy:  -613.28275406509363
    Total Energy =                       -613.2827540650936271
  @DF-RKS Final Energy:  -613.28276962712971
    Total Energy =                       -613.2827696271297100
  @DF-RKS Final Energy:  -613.28264327663965
    Total Energy =                       -613.2826432766395328
  @DF-RKS Final Energy:  -613.28276962060386
    Total Energy =                       -613.2827696206038581
  @DF-RKS Final Energy:  -613.28278953165011
    Total Energy =                       -613.2827895316501099
  @DF-RKS Final Energy:  -613.28281476102268
    Total Energy =                       -613.2828147610225642
  @DF-RKS Final Energy:  -613.28289594034459
    Total Energy =                       -613.2828959403445879
  @DF-RKS Final Energy:  -613.28313374847596
    Total Energy =                       -613.2831337484759615
  @DF-RKS Final Energy:  -613.28340860601452
    Total Energy =                       -613.2834086060145182
  @DF-RKS Final Energy:  -613.27868748820515
    Total Energy =                       -613.2786874882051507
  Basis Set: (6-311G AUX)
    Blend: CC-PVTZ-JKFIT
  Basis Set: 6-311G
    Blend: 6-311G
  Basis Set: (6-311G AUX)
    Blend: CC-PVTZ-JKFIT
  @DF-RKS Final Energy:  -613.28232868598741
    Total Energy =                       -613.2823286859875225
  Basis Set: 6-311G
    Blend: 6-311G
  Basis Set: (6-311G AUX)
    Blend: CC-PVTZ-JKFIT
  Charge       = 0
  Multiplicity = 1
  Basis Set: 6-311G
    Blend: 6-311G
  Basis Set: (6-311G AUX)
    Blend: CC-PVTZ-JKFIT

    Orbital Energies [Eh]
    ---------------------

    Doubly Occupied:

       1A    -19.207925     2A    -14.476351     3A    -14.440634
       4A    -10.399798     5A    -10.333950     6A    -10.326130
       7A    -10.312390     8A    -10.310898     9A    -10.309194
      10A    -10.292364    11A    -10.291365    12A    -10.288891
      13A    -10.287661    14A    -10.286917    15A     -1.148945
      16A     -1.050189    17A     -1.040300    18A     -0.959204
      19A     -0.861531    20A     -0.854295    21A     -0.836307
      22A     -0.821893    23A     -0.805689    24A     -0.730684
      25A     -0.712281    26A     -0.702023    27A     -0.654508
      28A     -0.604960    29A     -0.596436    30A     -0.585600
      31A     -0.575368    32A     -0.564915    33A     -0.553097
      34A     -0.533773    35A     -0.528232    36A     -0.519806
      37A     -0.509206    38A     -0.502087    39A     -0.491939
      40A     -0.482591    41A     -0.481491    42A     -0.468392
      43A     -0.464454    44A     -0.460038    45A     -0.442687
      46A     -0.436761    47A     -0.430797    48A     -0.358285
      49A     -0.337670    50A     -0.323798    51A     -0.303388
      52A     -0.294914

  @DF-RKS Final Energy:  -613.28340860139895

   => Energetics <=

    Nuclear Repulsion Energy =            894.2301456318248256
    One-Electron Energy =               -2604.7813143749217488
    Two-Electron Energy =                1157.8077677422015768
    DFT Exchange-Correlation Energy =     -60.5190634289239284
    Empirical Dispersion Energy =          -0.0209441715796084
    VV10 Nonlocal Energy =                  0.0000000000000000
    Total Energy =                       -613.2834086013988326

  Dipole Moment: [D]
     X:     1.2778      Y:    -1.4991      Z:    -3.2619     Total:     3.8105

    Molecular point group: c1
  Basis Set: 6-311G
    Blend: 6-311G
  Basis Set: (6-311G AUX)
    Blend: CC-PVTZ-JKFIT

  -Total Gradient:
     Atom            X                  Y                   Z
    ------   -----------------  -----------------  -----------------
       1        0.001397115712    -0.004905122716     0.002881116849
       2       -0.001589334926     0.004451999087    -0.004036142189
       3        0.002758855827    -0.003136047644     0.005930248498
       4       -0.002824016738     0.002270717554    -0.004952474244
       5        0.000215102778     0.000367760794     0.001047079360
       6        0.000006113748     0.000241024312     0.000213857510
       7       -0.000322890864     0.000221031641     0.000295423867
       8       -0.000930908498    -0.000645920815    -0.002198394500
       9        0.000293141576    -0.000017040582     0.000143768804
      10       -0.000167110536     0.000207687584    -0.000211930511
      11        0.000351540651    -0.000073000322     0.000008327944
      12        0.000263660067     0.001242121813     0.000422416219
      13        0.000143201528     0.000127700388     0.000297148616
      14        0.000107126742     0.000667035222     0.000840929285
      15       -0.000195196967    -0.000593043776     0.000407515166
      16       -0.000164241236     0.000956895809    -0.000555422182
      17       -0.000032428232    -0.000005777240     0.000069278825
      18       -0.000010106435     0.000056035920    -0.000021242205
      19        0.000024019905     0.000010144292     0.000044381700
      20        0.000129717655     0.000146102580    -0.000118173655
      21       -0.000310722985     0.000070468521    -0.000079966629
      22        0.000350361090    -0.000010991019     0.000139327905
      23        0.000280134569    -0.001612794676    -0.000892821157
      24       -0.000097601014     0.000064921355    -0.000052464210
      25        0.000070817210     0.000050274654     0.000165808258
      26        0.000050342328    -0.000042318296     0.000071615313
      27       -0.000026426892     0.000059875380     0.000099166802
      28       -0.000096220780     0.000002883103     0.000016738132
      29        0.000023786703    -0.000189803550    -0.000089480477
      30        0.000039359641    -0.000043126237    -0.000186106427

  **** Optimization is complete! (in 1 steps) ****
    Final optimized geometry and variables:
    Molecular point group: c1

    Geometry (in Angstrom), charge = 0, multiplicity = 1:

    N           -0.019221757733    -0.015817768179    -0.363972056934
    C            0.947735035875     0.623396389606     0.385030985393
    C            2.374914596751     0.784581237797    -0.129232804150
    N            2.913356067953    -0.259448144189    -0.992784319722
    O            0.698348367987     1.110710388667     1.504895217144
    H            2.401906222376     1.730367562783    -0.679864616522
    H            2.976437986584     0.931632902649     0.779720888456
    C           -1.364992810162    -0.046748072864     0.143863939770
    C           -3.988456389050    -0.130065094201     1.107064558990
    C           -2.933096831172    -0.583995034432     1.896904935304
    C           -3.725387907054     0.374865902016    -0.162768839791
    C           -1.627412271659    -0.545715540711     1.421019470048
    C           -2.417816365568     0.425966773245    -0.640610761268
    C            0.147784784375    -0.343211628508    -1.791691763832
    C            4.143625532800     0.146904665455    -1.666446081363
    C            3.053383996141    -1.535838856319    -0.292379603074
    H           -3.125348869983    -0.970703794236     2.888451952962
    H           -4.533493960012     0.741256774293    -0.781406652888
    H           -0.810755269133    -0.883319110899     2.038869125057
    H           -2.220040920675     0.844648809348    -1.617815296874
    H           -0.720658708308    -0.914681764889    -2.108150890503
    H            0.217671726124     0.559996478822    -2.403824580558
    H            1.048415611855    -0.923227061153    -1.954344175132
    H            3.961895721814     1.040803437430    -2.263867020837
    H            4.963792167808     0.361809303704    -0.960019320036
    H            3.779999278554    -1.482698318903     0.535333107684
    H            2.090263796604    -1.840023557148     0.119296997313
    H           -5.002894328765    -0.164961318246     1.480105297909
    H            4.470048666755    -0.648656886220    -2.336422892304
    H            3.381806034189    -2.304390316750    -0.992414690876

*** Psi4 exiting successfully. Buy a developer a beer!
