                               Psi4 1.5 release

  ==> Input File <==

--------------------------------------------------------------------------
molecule {
0 1
 N   -0.151115    0.544455   -0.483231
 C    0.949203    0.633912    0.404099
 C    2.329587    0.903589   -0.256164
 N    3.076406   -0.320113   -0.611531
 O    0.819572    0.534379    1.624765
 H    2.269991    1.567299   -1.135403
 H    2.952669    1.464706    0.462749
 C   -1.493067    0.401703    0.050146
 C   -4.127843    0.129456    1.037548
 C   -3.129325   -0.767028    1.440448
 C   -3.812839    1.162496    0.144850
 C   -1.819771   -0.640316    0.957404
 C   -2.509138    1.306392   -0.351094
 C    0.009233    0.261957   -1.931395
 C    4.210441   -0.025951   -1.507926
 C    3.551047   -1.039356    0.591761
 H   -3.368196   -1.573817    2.135688
 H   -4.585957    1.864365   -0.173306
 H   -1.051396   -1.342911    1.284315
 H   -2.282135    2.117547   -1.046162
 H   -0.881175   -0.220651   -2.336601
 H    0.175149    1.190685   -2.477415
 H    0.849706   -0.411440   -2.104280
 H    3.835934    0.437291   -2.435720
 H    4.935373    0.651575   -1.025617
 H    4.279226   -0.435412    1.158915
 H    2.695450   -1.269469    1.247496
 H   -5.145694    0.023127    1.417875
 H    4.714982   -0.965329   -1.787419
 H    4.013757   -1.994669    0.295081
}
set optking {
  frozen_dihedral = ("
    1 2 3 4
    2 1 8 12
    8 1 2 3
    2 3 4 15
  ")
}
set {
  geom_maxiter 400
  g_convergence GAU_LOOSE
  dynamic_level 1
}
memory 8.166666666666666GB
set_num_threads(2)
psi4_io.set_default_path("/scratch/bdw2292/Psi4-25_27_Index_0-farH_in17")
for _ in range(1):
  try:
    set opt_coordinates both
    optimize('wb97x-d/6-311G')
    break
  except OptimizationConvergenceError:
    break
  else:
    try:
      set opt_coordinates cartesian
      optimize('wb97x-d/6-311G')
      break
    except OptimizationConvergenceError:
      pass
clean()
--------------------------------------------------------------------------

    Molecular point group: c1
  Charge       = 0
  Multiplicity = 1
  Basis Set: 6-311G
    Blend: 6-311G
  Basis Set: (6-311G AUX)
    Blend: CC-PVTZ-JKFIT
  @DF-RKS Final Energy:  -613.27738301855243
    Total Energy =                       -613.2773830185524275
    Molecular point group: c1
  Basis Set: 6-311G
    Blend: 6-311G
  Basis Set: (6-311G AUX)
    Blend: CC-PVTZ-JKFIT
  Basis Set: 6-311G
    Blend: 6-311G
  Basis Set: (6-311G AUX)
    Blend: CC-PVTZ-JKFIT
  @DF-RKS Final Energy:  -613.28551543889387
    Total Energy =                       -613.2855154388939809
  Basis Set: 6-311G
    Blend: 6-311G
  Basis Set: (6-311G AUX)
    Blend: CC-PVTZ-JKFIT
  Basis Set: 6-311G
    Blend: 6-311G
  @DF-RKS Final Energy:  -613.28601803805009
    Total Energy =                       -613.2860180380500879
  @DF-RKS Final Energy:  -613.28624947888295
    Total Energy =                       -613.2862494788829508
  @DF-RKS Final Energy:  -613.28644177871547
    Total Energy =                       -613.2864417787155844
  @DF-RKS Final Energy:  -613.28641512701120
    Total Energy =                       -613.2864151270110824
  @DF-RKS Final Energy:  -613.28644179220964
    Total Energy =                       -613.2864417922097573
  Basis Set: (6-311G AUX)
    Blend: CC-PVTZ-JKFIT
  Basis Set: 6-311G
    Blend: 6-311G
  Basis Set: (6-311G AUX)
    Blend: CC-PVTZ-JKFIT
  @DF-RKS Final Energy:  -613.28645290412760
    Total Energy =                       -613.2864529041274864
  Basis Set: 6-311G
    Blend: 6-311G
  Basis Set: (6-311G AUX)
    Blend: CC-PVTZ-JKFIT
  Charge       = 0
  Multiplicity = 1
  Basis Set: 6-311G
    Blend: 6-311G
  Basis Set: (6-311G AUX)
    Blend: CC-PVTZ-JKFIT

    Orbital Energies [Eh]
    ---------------------

    Doubly Occupied:

       1A    -19.209799     2A    -14.475521     3A    -14.437368
       4A    -10.397450     5A    -10.335798     6A    -10.322627
       7A    -10.321904     8A    -10.307919     9A    -10.295883
      10A    -10.295322    11A    -10.294562    12A    -10.292538
      13A    -10.291650    14A    -10.290801    15A     -1.149427
      16A     -1.052429    17A     -1.034176    18A     -0.963284
      19A     -0.867080    20A     -0.856883    21A     -0.835527
      22A     -0.812622    23A     -0.810077    24A     -0.733329
      25A     -0.712594    26A     -0.697534    27A     -0.654918
      28A     -0.606989    29A     -0.599700    30A     -0.583666
      31A     -0.577466    32A     -0.559124    33A     -0.558095
      34A     -0.534740    35A     -0.531940    36A     -0.520109
      37A     -0.512977    38A     -0.494304    39A     -0.492249
      40A     -0.483366    41A     -0.475703    42A     -0.463702
      43A     -0.461802    44A     -0.455674    45A     -0.448631
      46A     -0.441570    47A     -0.434202    48A     -0.354301
      49A     -0.339750    50A     -0.327724    51A     -0.305401
      52A     -0.293924

  @DF-RKS Final Energy:  -613.28646403789912

   => Energetics <=

    Nuclear Repulsion Energy =            889.7591232772384728
    One-Electron Energy =               -2595.8206037883151112
    Two-Electron Energy =                1153.3137620259917639
    DFT Exchange-Correlation Energy =     -60.5183736835260362
    Empirical Dispersion Energy =          -0.0203718692880984
    VV10 Nonlocal Energy =                  0.0000000000000000
    Total Energy =                       -613.2864640378991226

  Dipole Moment: [D]
     X:     0.3121      Y:    -0.3916      Z:    -3.5729     Total:     3.6079

    Molecular point group: c1
  Basis Set: 6-311G
    Blend: 6-311G
  Basis Set: (6-311G AUX)
    Blend: CC-PVTZ-JKFIT

  -Total Gradient:
     Atom            X                  Y                   Z
    ------   -----------------  -----------------  -----------------
       1       -0.001148851380     0.004798942489    -0.000567266265
       2        0.001733755187    -0.004615265680     0.001665810633
       3       -0.002527982939    -0.000285757063    -0.005195644389
       4        0.001633607745     0.000391963259     0.003618878311
       5        0.000001988263     0.000151429049    -0.000121147481
       6       -0.000004988804     0.000005773745    -0.000051119902
       7       -0.000033323254     0.000055913280     0.000015877846
       8        0.000404122653    -0.000221291400     0.001051490866
       9        0.000040189586    -0.000012824426     0.000002719783
      10       -0.000031762241     0.000027823479    -0.000054504047
      11        0.000059293968    -0.000035595667    -0.000042283211
      12       -0.000190787384    -0.000591020284    -0.000659557450
      13       -0.000039781561    -0.000073655815    -0.000016533988
      14        0.000057276811    -0.000086449345    -0.000192346778
      15        0.000079883817     0.000093180358     0.000084293902
      16       -0.000103407121     0.000049235586     0.000038610098
      17       -0.000010626232    -0.000004667693    -0.000000873753
      18       -0.000003350446    -0.000010572328    -0.000014601775
      19       -0.000016484461     0.000007073222    -0.000019738190
      20        0.000008849548    -0.000025164425    -0.000028923615
      21        0.000177912845     0.000114685247     0.000091924564
      22       -0.000019258960    -0.000189698604     0.000030007033
      23       -0.000260156653     0.000108528289     0.000037316981
      24        0.000026572734    -0.000015913432    -0.000028202615
      25        0.000009197235    -0.000007778924    -0.000025673979
      26       -0.000028528234    -0.000030185958    -0.000030900794
      27        0.000047085250    -0.000013471612     0.000019156734
      28       -0.000003330780    -0.000011155555    -0.000022432153
      29       -0.000030483913     0.000008301215    -0.000013743892
      30       -0.000051734979     0.000038735138    -0.000006447367

  **** Optimization is complete! (in 3 steps) ****
    Final optimized geometry and variables:
    Molecular point group: c1

    Geometry (in Angstrom), charge = 0, multiplicity = 1:

    N           -0.128483849905     0.262297831400    -0.549675930372
    C            0.940895534295     0.519249406400     0.272122105127
    C            2.278078805017     0.780908441825    -0.399641741088
    N            3.040453150327    -0.461298533586    -0.569536414724
    O            0.837234893921     0.576345911100     1.511853568461
    H            2.149688667761     1.245566481996    -1.375492800262
    H            2.807600391674     1.497823373004     0.246551691201
    C           -1.447846196062     0.107985282542    -0.008521594237
    C           -4.053135862765    -0.204983192181     0.939633361037
    C           -3.013427369036    -0.961762033072     1.477579162452
    C           -3.786472826156     0.709983044356    -0.076336198109
    C           -1.713179221655    -0.814709178221     1.002662229820
    C           -2.485668840364     0.870139713449    -0.545947671281
    C            0.045406909357     0.025658908379    -1.989198767606
    C            4.170321841068    -0.291866646490    -1.481585470046
    C            3.441827414871    -1.076325256004     0.697166330874
    H           -3.214498088129    -1.671571897188     2.268268041360
    H           -4.585403773506     1.306062236132    -0.495926422866
    H           -0.904194913389    -1.390436680813     1.423694765069
    H           -2.268749675580     1.591675342694    -1.322311160001
    H           -0.795828221340    -0.564475769406    -2.343156388034
    H            0.081060512029     0.956193571884    -2.560794247087
    H            0.957259100522    -0.543951535900    -2.158535312264
    H            3.819485130029     0.075937685263    -2.446599840065
    H            4.925972687173     0.412608962878    -1.093028257656
    H            4.173078010447    -0.455178355251     1.241132273001
    H            2.578811638928    -1.215899184020     1.342574493509
    H           -5.061357068834    -0.325234463677     1.311506107497
    H            4.654031932215    -1.254963988413    -1.642547200455
    H            3.890073714149    -2.048819678868     0.495556838642

*** Psi4 exiting successfully. Buy a developer a beer!
