                               Psi4 1.5 release

  ==> Input File <==

--------------------------------------------------------------------------
molecule {
0 1
 N   -0.055600    0.267278   -0.114375
 C    0.682764   -0.923675   -0.329138
 C    2.214415   -0.965070   -0.651708
 N    3.314856   -0.003389   -0.222844
 O    0.117190   -2.007883   -0.174335
 H    2.567128   -1.970094   -0.362650
 H    2.292301   -1.001752   -1.753795
 C   -1.441731    0.138465    0.309546
 C   -4.139005   -0.005139    1.147365
 C   -3.719088   -0.702113    0.006717
 C   -3.217896    0.769278    1.864560
 C   -2.385907   -0.635160   -0.419828
 C   -1.879457    0.849630    1.455367
 C    0.132664    1.463627   -0.965132
 C    4.643625   -0.620546   -0.481098
 C    3.284338    1.313443   -0.874619
 H   -4.433623   -1.302036   -0.559683
 H   -3.540132    1.320358    2.750233
 H   -2.074519   -1.183807   -1.310245
 H   -1.175765    1.461088    2.024237
 H   -0.809184    1.758922   -1.431924
 H    0.469087    2.305543   -0.360971
 H    0.823214    1.269220   -1.782736
 H    4.718609   -1.575557    0.064576
 H    4.799819   -0.802182   -1.558449
 H    3.151486    1.224666   -1.965277
 H    2.488647    1.910326   -0.420388
 H   -5.178893   -0.063846    1.474203
 H    5.444498    0.032097   -0.095833
 H    4.216234    1.866777   -0.671906
}
set optking {
  frozen_dihedral = ("
    1 2 3 4
    2 1 8 12
    8 1 2 3
    2 3 4 15
  ")
}
set {
  geom_maxiter 400
  g_convergence GAU_LOOSE
  dynamic_level 1
}
memory 8.166666666666666GB
set_num_threads(2)
psi4_io.set_default_path("/scratch/bdw2292/Psi4-25_27_Index_0-farH_in17")
for _ in range(1):
  try:
    set opt_coordinates both
    optimize('wb97x-d/6-311G')
    break
  except OptimizationConvergenceError:
    break
  else:
    try:
      set opt_coordinates cartesian
      optimize('wb97x-d/6-311G')
      break
    except OptimizationConvergenceError:
      pass
clean()
--------------------------------------------------------------------------

    Molecular point group: c1
  Charge       = 0
  Multiplicity = 1
  Basis Set: 6-311G
    Blend: 6-311G
  Basis Set: (6-311G AUX)
    Blend: CC-PVTZ-JKFIT
  @DF-RKS Final Energy:  -613.24564388272915
    Total Energy =                       -613.2456438827291549
    Molecular point group: c1
  Basis Set: 6-311G
    Blend: 6-311G
  Basis Set: (6-311G AUX)
    Blend: CC-PVTZ-JKFIT
  Basis Set: 6-311G
    Blend: 6-311G
  Basis Set: (6-311G AUX)
    Blend: CC-PVTZ-JKFIT
  @DF-RKS Final Energy:  -613.25491415345027
    Total Energy =                       -613.2549141534503860
  Basis Set: 6-311G
    Blend: 6-311G
  Basis Set: (6-311G AUX)
    Blend: CC-PVTZ-JKFIT
  Basis Set: 6-311G
    Blend: 6-311G
  @DF-RKS Final Energy:  -613.25582410536128
    Total Energy =                       -613.2558241053612846
  @DF-RKS Final Energy:  -613.25559457655652
    Total Energy =                       -613.2555945765564047
  @DF-RKS Final Energy:  -613.25637386962137
    Total Energy =                       -613.2563738696212567
  @DF-RKS Final Energy:  -613.25640617213037
    Total Energy =                       -613.2564061721302551
  @DF-RKS Final Energy:  -613.25642472026095
    Total Energy =                       -613.2564247202608385
  @DF-RKS Final Energy:  -613.25645729956602
    Total Energy =                       -613.2564572995661365
  @DF-RKS Final Energy:  -613.25648145704145
    Total Energy =                       -613.2564814570413319
  @DF-RKS Final Energy:  -613.25646238085073
    Total Energy =                       -613.2564623808507349
  @DF-RKS Final Energy:  -613.25648146242827
    Total Energy =                       -613.2564814624281553
  @DF-RKS Final Energy:  -613.25644444783268
    Total Energy =                       -613.2564444478326777
  @DF-RKS Final Energy:  -613.25650005654882
    Total Energy =                       -613.2565000565488162
  @DF-RKS Final Energy:  -613.25651698282104
    Total Energy =                       -613.2565169828211538
  @DF-RKS Final Energy:  -613.25654966153616
    Total Energy =                       -613.2565496615361553
  @DF-RKS Final Energy:  -613.25515745741075
    Total Energy =                       -613.2551574574107462
  Basis Set: (6-311G AUX)
    Blend: CC-PVTZ-JKFIT
  Basis Set: 6-311G
    Blend: 6-311G
  Basis Set: (6-311G AUX)
    Blend: CC-PVTZ-JKFIT
  @DF-RKS Final Energy:  -613.25625411752776
    Total Energy =                       -613.2562541175277602
  Basis Set: 6-311G
    Blend: 6-311G
  Basis Set: (6-311G AUX)
    Blend: CC-PVTZ-JKFIT
  Charge       = 0
  Multiplicity = 1
  Basis Set: 6-311G
    Blend: 6-311G
  Basis Set: (6-311G AUX)
    Blend: CC-PVTZ-JKFIT

    Orbital Energies [Eh]
    ---------------------

    Doubly Occupied:

       1A    -19.213396     2A    -14.475152     3A    -14.435267
       4A    -10.404782     5A    -10.333244     6A    -10.327483
       7A    -10.326428     8A    -10.308115     9A    -10.306153
      10A    -10.294347    11A    -10.293768    12A    -10.293328
      13A    -10.292780    14A    -10.292389    15A     -1.154810
      16A     -1.050897    17A     -1.032918    18A     -0.962596
      19A     -0.860867    20A     -0.856320    21A     -0.842567
      22A     -0.814017    23A     -0.810567    24A     -0.733680
      25A     -0.714321    26A     -0.703937    27A     -0.654523
      28A     -0.607327    29A     -0.601728    30A     -0.584485
      31A     -0.575843    32A     -0.561962    33A     -0.552386
      34A     -0.534300    35A     -0.529520    36A     -0.522607
      37A     -0.514897    38A     -0.508040    39A     -0.505199
      40A     -0.488961    41A     -0.471213    42A     -0.468545
      43A     -0.459320    44A     -0.449658    45A     -0.446672
      46A     -0.435446    47A     -0.432549    48A     -0.346498
      49A     -0.342374    50A     -0.330105    51A     -0.316770
      52A     -0.288059

  @DF-RKS Final Energy:  -613.25654966837430

   => Energetics <=

    Nuclear Repulsion Energy =            885.6027771589955364
    One-Electron Energy =               -2587.3412855376855077
    Two-Electron Energy =                1149.0094048019252568
    DFT Exchange-Correlation Energy =     -60.5068512255791120
    Empirical Dispersion Energy =          -0.0205948660305249
    VV10 Nonlocal Energy =                  0.0000000000000000
    Total Energy =                       -613.2565496683741912

  Dipole Moment: [D]
     X:     0.9133      Y:     3.2228      Z:    -2.0105     Total:     3.9067

    Molecular point group: c1
  Basis Set: 6-311G
    Blend: 6-311G
  Basis Set: (6-311G AUX)
    Blend: CC-PVTZ-JKFIT

  -Total Gradient:
     Atom            X                  Y                   Z
    ------   -----------------  -----------------  -----------------
       1        0.005321661011     0.000490084817     0.019163452339
       2       -0.003933754537     0.005256535915    -0.019789018205
       3        0.003177952077    -0.010384218387     0.017377834300
       4       -0.002861351265     0.005373131147    -0.008076289245
       5       -0.000400339710    -0.000836119425     0.000456000968
       6        0.000268078014     0.000072679199     0.000214666117
       7       -0.000090460739    -0.000265561881    -0.000034334046
       8       -0.002325283470     0.000347067495    -0.007862185754
       9        0.000047267583     0.000024051655     0.000007746176
      10       -0.000012100192    -0.000057703927     0.000098914389
      11       -0.000111176468    -0.000032398759    -0.000069623427
      12        0.000070481600    -0.000658915229     0.000382358522
      13        0.000041494377     0.000100830466     0.000089609750
      14       -0.000037496507     0.000016486231     0.000064469712
      15        0.000185020035     0.000980615030    -0.002143830122
      16        0.000625070184     0.000086776963    -0.000452668516
      17       -0.000073578178     0.000001135845    -0.000005242810
      18       -0.000018561980     0.000006822626     0.000007551221
      19        0.000000925954    -0.000043507337    -0.000022574696
      20        0.000094510336     0.000073784551     0.000014466151
      21        0.000369423487    -0.000038004732     0.000259182937
      22       -0.000008158765    -0.000064612479    -0.000173991645
      23       -0.000443608609     0.000074228264     0.000234594309
      24       -0.000096759806    -0.000184895618     0.000247070082
      25       -0.000016520303    -0.000067926736    -0.000130687844
      26       -0.000007342362    -0.000158763592    -0.000175399584
      27       -0.000418194200     0.000027093199     0.000268802168
      28       -0.000132342956     0.000015016806    -0.000013497734
      29        0.000192660373     0.000278858459     0.000117064145
      30        0.000497557402    -0.000091662667     0.000144057195

  **** Optimization is complete! (in 1 steps) ****
    Final optimized geometry and variables:
    Molecular point group: c1

    Geometry (in Angstrom), charge = 0, multiplicity = 1:

    N            0.010361020151     0.307331648706    -0.161734709084
    C            0.710208277528    -0.880084839808    -0.295922523172
    C            2.199481833173    -0.997308651159    -0.648436562614
    N            3.244426461969    -0.025638804292    -0.307454071537
    O            0.155466168809    -1.967884543829    -0.046368367943
    H            2.465598550309    -1.929047165668    -0.157274162154
    H            2.225236143496    -1.217548291435    -1.738794000146
    C           -1.358849688821     0.238937480864     0.307623915255
    C           -3.995569494606     0.295487163668     1.205714927788
    C           -3.634243948703    -0.529128270754     0.140581175054
    C           -3.032529864170     1.087973568516     1.825249649754
    C           -2.319176371479    -0.558100550821    -0.314373104143
    C           -1.712637436638     1.054900105011     1.378994332215
    C            0.177952166695     1.410564701759    -1.130720106690
    C            4.552807901835    -0.653910156001    -0.523097449653
    C            3.226022604287     1.331236428401    -0.830259407963
    H           -4.376491178787    -1.155929210983    -0.334630213818
    H           -3.302847185599     1.722549992146     2.658201029346
    H           -2.032562226685    -1.212911434380    -1.122211062494
    H           -0.947382057472     1.649085102909     1.859687752326
    H           -0.739931076427     1.507639068832    -1.711753132940
    H            0.367378377766     2.359139435994    -0.631393072650
    H            0.984180822676     1.198126666489    -1.821994681597
    H            4.610481907567    -1.594846116431     0.024523551291
    H            4.750793259590    -0.864234527803    -1.589540153092
    H            3.123727489689     1.381872746632    -1.929903765068
    H            2.442148232098     1.918645259643    -0.365233222749
    H           -5.019687161703     0.313614935081     1.553213713483
    H            5.340573054531    -0.000643153256    -0.148791677660
    H            4.173436853253     1.803260851721    -0.569473064247

*** Psi4 exiting successfully. Buy a developer a beer!
