                               Psi4 1.5 release

  ==> Input File <==

--------------------------------------------------------------------------
molecule {
0 1
 N   -0.247029    0.188117   -0.753799
 C    0.818266   -0.525182   -0.239182
 C    2.133664   -0.430668   -1.008072
 N    3.290724   -0.551951   -0.140302
 O    0.722655   -1.181190    0.808003
 H    2.150782   -1.247976   -1.735271
 H    2.174141    0.511388   -1.581954
 C   -1.488551    0.242146   -0.034989
 C   -3.940795    0.412010    1.288094
 C   -3.367403   -0.831267    1.025353
 C   -3.281636    1.572774    0.890327
 C   -2.148145   -0.921658    0.360128
 C   -2.055397    1.488708    0.236389
 C   -0.184357    0.907674   -2.032083
 C    4.525648   -0.768533   -0.881709
 C    3.390019    0.505590    0.858109
 H   -3.871454   -1.736078    1.336567
 H   -3.713265    2.542684    1.097275
 H   -1.695441   -1.881822    0.169496
 H   -1.530885    2.388880   -0.055529
 H   -1.201768    1.103011   -2.362648
 H    0.344973    1.860568   -1.949965
 H    0.299494    0.302051   -2.797422
 H    4.425838   -1.645689   -1.522119
 H    4.807952    0.093726   -1.514713
 H    3.517576    1.506518    0.404089
 H    2.499329    0.507762    1.482833
 H   -4.889970    0.475195    1.802200
 H    5.339463   -0.955553   -0.181412
 H    4.246637    0.311660    1.502644
}
memory 8.166666666666666GB
set_num_threads(2)
psi4_io.set_default_path("/scratch/bdw2292/Psi4-25_27_Index_0-farH_in17")
set freeze_core True
E, wfn = energy('wb97x-d/6-311+G*',return_wfn=True)
oeprop(wfn,"WIBERG_LOWDIN_INDICES")
clean()
--------------------------------------------------------------------------

    Molecular point group: c1

    Geometry (in Angstrom), charge = 0, multiplicity = 1:

       Center              X                  Y                   Z               Mass
    ------------   -----------------  -----------------  -----------------  -----------------
         N           -0.247029098336     0.188117040340    -0.753799069965    14.003074004430
         C            0.818265901664    -0.525181959660    -0.239182069965    12.000000000000
         C            2.133663901664    -0.430667959660    -1.008072069965    12.000000000000
         N            3.290723901664    -0.551950959660    -0.140302069965    14.003074004430
         O            0.722654901664    -1.181189959660     0.808002930035    15.994914619570
         H            2.150781901664    -1.247975959660    -1.735271069965     1.007825032230
         H            2.174140901664     0.511388040340    -1.581954069965     1.007825032230
         C           -1.488551098336     0.242146040340    -0.034989069965    12.000000000000
         C           -3.940795098336     0.412010040340     1.288093930035    12.000000000000
         C           -3.367403098336    -0.831266959660     1.025352930035    12.000000000000
         C           -3.281636098336     1.572774040340     0.890326930035    12.000000000000
         C           -2.148145098336    -0.921657959660     0.360127930035    12.000000000000
         C           -2.055397098336     1.488708040340     0.236388930035    12.000000000000
         C           -0.184357098336     0.907674040340    -2.032083069965    12.000000000000
         C            4.525647901664    -0.768532959660    -0.881709069965    12.000000000000
         C            3.390018901664     0.505590040340     0.858108930035    12.000000000000
         H           -3.871454098336    -1.736077959660     1.336566930035     1.007825032230
         H           -3.713265098336     2.542684040340     1.097274930035     1.007825032230
         H           -1.695441098336    -1.881821959660     0.169495930035     1.007825032230
         H           -1.530885098336     2.388880040340    -0.055529069965     1.007825032230
         H           -1.201768098336     1.103011040340    -2.362648069965     1.007825032230
         H            0.344972901664     1.860568040340    -1.949965069965     1.007825032230
         H            0.299493901664     0.302051040340    -2.797422069965     1.007825032230
         H            4.425837901664    -1.645688959660    -1.522119069965     1.007825032230
         H            4.807951901664     0.093726040340    -1.514713069965     1.007825032230
         H            3.517575901664     1.506518040340     0.404088930035     1.007825032230
         H            2.499328901664     0.507762040340     1.482832930035     1.007825032230
         H           -4.889970098336     0.475195040340     1.802199930035     1.007825032230
         H            5.339462901664    -0.955552959660    -0.181412069965     1.007825032230
         H            4.246636901664     0.311660040340     1.502643930035     1.007825032230

  Charge       = 0
  Multiplicity = 1
  Basis Set: 6-311+G*
    Blend: 6-311+G*
  Basis Set: (6-311+G* AUX)
    Blend: HEAVY-AUG-CC-PVTZ-JKFIT

    Orbital Energies [Eh]
    ---------------------

    Doubly Occupied:

       1A    -19.208607     2A    -14.475626     3A    -14.424824
       4A    -10.392154     5A    -10.333492     6A    -10.330339
       7A    -10.322309     8A    -10.299926     9A    -10.294382
      10A    -10.293583    11A    -10.292277    12A    -10.291259
      13A    -10.290127    14A    -10.289244    15A     -1.135034
      16A     -1.048214    17A     -1.024263    18A     -0.959111
      19A     -0.863757    20A     -0.854551    21A     -0.832928
      22A     -0.809052    23A     -0.804910    24A     -0.733543
      25A     -0.709786    26A     -0.688833    27A     -0.648813
      28A     -0.608403    29A     -0.596746    30A     -0.582462
      31A     -0.577050    32A     -0.557238    33A     -0.556283
      34A     -0.537485    35A     -0.533187    36A     -0.521778
      37A     -0.512838    38A     -0.498116    39A     -0.490859
      40A     -0.479884    41A     -0.472797    42A     -0.467709
      43A     -0.457200    44A     -0.451715    45A     -0.446685
      46A     -0.439080    47A     -0.432714    48A     -0.358800
      49A     -0.341741    50A     -0.329170    51A     -0.308378
      52A     -0.292097

  @DF-RKS Final Energy:  -613.45721259631830

   => Energetics <=

    Nuclear Repulsion Energy =            885.1266041651213072
    One-Electron Energy =               -2587.0975697362541723
    Two-Electron Energy =                1149.0623364588363984
    DFT Exchange-Correlation Energy =     -60.5288283574933672
    Empirical Dispersion Energy =          -0.0197551265283703
    VV10 Nonlocal Energy =                  0.0000000000000000
    Total Energy =                       -613.4572125963181861

  Dipole Moment: [D]
     X:    -0.3190      Y:     2.3828      Z:    -3.2491     Total:     4.0418

*** Psi4 exiting successfully. Buy a developer a beer!
