                               Psi4 1.5 release

  ==> Input File <==

--------------------------------------------------------------------------
molecule {
0 1
 N   -0.281459    0.389907   -0.695975
 C    0.856119   -0.224857   -0.115104
 C    2.208012    0.042940   -0.848761
 N    3.408245   -0.578580   -0.235728
 O    0.779989   -0.852095    0.943344
 H    2.169958   -0.293921   -1.898640
 H    2.400473    1.130135   -0.897770
 C   -1.566665    0.290564   -0.029344
 C   -4.088863    0.130785    1.238201
 C   -3.368279   -1.036957    0.955007
 C   -3.551318    1.377537    0.892647
 C   -2.116661   -0.968699    0.327757
 C   -2.300391    1.468345    0.265635
 C   -0.298220    0.889359   -2.092558
 C    4.566928   -0.539368   -1.147058
 C    3.747928    0.050537    1.057309
 H   -3.781636   -2.011147    1.221886
 H   -4.107477    2.291298    1.109798
 H   -1.564667   -1.887048    0.119837
 H   -1.895184    2.449369    0.008435
 H   -1.306941    1.173344   -2.395345
 H    0.340085    1.767906   -2.189163
 H    0.042586    0.114099   -2.779622
 H    4.323767   -1.079175   -2.076934
 H    4.852185    0.499068   -1.387011
 H    3.973695    1.124085    0.941942
 H    2.897712   -0.077502    1.745038
 H   -5.063652    0.069302    1.726071
 H    5.420301   -1.056950   -0.679438
 H    4.613509   -0.463807    1.505416
}
set optking {
  frozen_dihedral = ("
    1 2 3 4
    2 1 8 12
    8 1 2 3
    2 3 4 15
  ")
}
set {
  geom_maxiter 400
  g_convergence GAU_LOOSE
  dynamic_level 1
}
memory 8.166666666666666GB
set_num_threads(2)
psi4_io.set_default_path("/scratch/bdw2292/Psi4-25_27_Index_0-farH_in17")
for _ in range(1):
  try:
    set opt_coordinates both
    optimize('wb97x-d/6-311G')
    break
  except OptimizationConvergenceError:
    break
  else:
    try:
      set opt_coordinates cartesian
      optimize('wb97x-d/6-311G')
      break
    except OptimizationConvergenceError:
      pass
clean()
--------------------------------------------------------------------------

    Molecular point group: c1
  Charge       = 0
  Multiplicity = 1
  Basis Set: 6-311G
    Blend: 6-311G
  Basis Set: (6-311G AUX)
    Blend: CC-PVTZ-JKFIT
  @DF-RKS Final Energy:  -613.27299336105671
    Total Energy =                       -613.2729933610567059
    Molecular point group: c1
  Basis Set: 6-311G
    Blend: 6-311G
  Basis Set: (6-311G AUX)
    Blend: CC-PVTZ-JKFIT
  Basis Set: 6-311G
    Blend: 6-311G
  Basis Set: (6-311G AUX)
    Blend: CC-PVTZ-JKFIT
  @DF-RKS Final Energy:  -613.28041687522659
    Total Energy =                       -613.2804168752265923
  Basis Set: 6-311G
    Blend: 6-311G
  Basis Set: (6-311G AUX)
    Blend: CC-PVTZ-JKFIT
  Basis Set: 6-311G
    Blend: 6-311G
  @DF-RKS Final Energy:  -613.28153483459118
    Total Energy =                       -613.2815348345911843
  @DF-RKS Final Energy:  -613.28144224112918
    Total Energy =                       -613.2814422411291844
  @DF-RKS Final Energy:  -613.28210546511218
    Total Energy =                       -613.2821054651121813
  @DF-RKS Final Energy:  -613.28214535193274
    Total Energy =                       -613.2821453519328543
  @DF-RKS Final Energy:  -613.28222744674736
    Total Energy =                       -613.2822274467473562
  @DF-RKS Final Energy:  -613.28222613148705
    Total Energy =                       -613.2822261314871639
  Basis Set: (6-311G AUX)
    Blend: CC-PVTZ-JKFIT
  Basis Set: 6-311G
    Blend: 6-311G
  Basis Set: (6-311G AUX)
    Blend: CC-PVTZ-JKFIT
  @DF-RKS Final Energy:  -613.28222745370749
    Total Energy =                       -613.2822274537076055
  Basis Set: 6-311G
    Blend: 6-311G
  Basis Set: (6-311G AUX)
    Blend: CC-PVTZ-JKFIT
  Charge       = 0
  Multiplicity = 1
  Basis Set: 6-311G
    Blend: 6-311G
  Basis Set: (6-311G AUX)
    Blend: CC-PVTZ-JKFIT

    Orbital Energies [Eh]
    ---------------------

    Doubly Occupied:

       1A    -19.212123     2A    -14.478770     3A    -14.426471
       4A    -10.402118     5A    -10.338176     6A    -10.332599
       7A    -10.328283     8A    -10.301498     9A    -10.296907
      10A    -10.295547    11A    -10.292745    12A    -10.291823
      13A    -10.290642    14A    -10.286031    15A     -1.153577
      16A     -1.055755    17A     -1.029776    18A     -0.964494
      19A     -0.869873    20A     -0.858130    21A     -0.838242
      22A     -0.814302    23A     -0.804734    24A     -0.737524
      25A     -0.712371    26A     -0.691267    27A     -0.651249
      28A     -0.612143    29A     -0.600425    30A     -0.586824
      31A     -0.576468    32A     -0.558619    33A     -0.556486
      34A     -0.539066    35A     -0.536756    36A     -0.521575
      37A     -0.514983    38A     -0.502867    39A     -0.495414
      40A     -0.476118    41A     -0.472897    42A     -0.468700
      43A     -0.456060    44A     -0.449112    45A     -0.445070
      46A     -0.440322    47A     -0.432809    48A     -0.359531
      49A     -0.340364    50A     -0.327490    51A     -0.305382
      52A     -0.284522

  @DF-RKS Final Energy:  -613.28223066333578

   => Energetics <=

    Nuclear Repulsion Energy =            882.7748751282402964
    One-Electron Energy =               -2581.8286736003465194
    Two-Electron Energy =                1146.3081074449769403
    DFT Exchange-Correlation Energy =     -60.5169476426589270
    Empirical Dispersion Energy =          -0.0195919935474905
    VV10 Nonlocal Energy =                  0.0000000000000000
    Total Energy =                       -613.2822306633357812

  Dipole Moment: [D]
     X:    -0.1905      Y:     2.2406      Z:    -3.5479     Total:     4.2005

    Molecular point group: c1
  Basis Set: 6-311G
    Blend: 6-311G
  Basis Set: (6-311G AUX)
    Blend: CC-PVTZ-JKFIT

  -Total Gradient:
     Atom            X                  Y                   Z
    ------   -----------------  -----------------  -----------------
       1       -0.000148890576    -0.001181881083    -0.000333385657
       2       -0.000014678556     0.001051728780     0.000155276990
       3        0.000118640935    -0.000107155178     0.000100035523
       4       -0.000392867903    -0.001120016448    -0.000399069517
       5        0.000018236983     0.000024034829     0.000166326886
       6        0.000033841297     0.000036156057     0.000010625309
       7       -0.000037827510     0.000079355491    -0.000061802531
       8        0.000131189993     0.000440383123     0.000405016462
       9       -0.000007618622    -0.000092889176     0.000003987852
      10       -0.000122813977     0.000091593511     0.000008128829
      11        0.000068284215     0.000085338034    -0.000055068407
      12       -0.000061186441    -0.000006514151    -0.000206970861
      13       -0.000061872649     0.000097482367     0.000073173096
      14        0.000064942137     0.000136897294    -0.000073812289
      15        0.000177537061     0.000806273816     0.000253755230
      16       -0.000170089578    -0.000084485827     0.000006070044
      17       -0.000033145445     0.000020530526    -0.000031878976
      18       -0.000010543499     0.000021210272     0.000011414728
      19       -0.000025229699     0.000039572101    -0.000004488414
      20        0.000040405083     0.000016341248     0.000024212522
      21        0.000056843251     0.000039031172     0.000002372395
      22        0.000003075374    -0.000022360595     0.000006515902
      23        0.000063456260    -0.000024855006    -0.000027601159
      24        0.000022456687     0.000004992219    -0.000034055538
      25        0.000023337359     0.000003269399     0.000001809707
      26        0.000002800961     0.000005601337     0.000029272885
      27       -0.000031211582     0.000030496967     0.000008629023
      28       -0.000020877995     0.000037780800    -0.000022383110
      29       -0.000005560294    -0.000010626223    -0.000030260265
      30       -0.000015205467    -0.000015930163    -0.000002687555

  **** Optimization is complete! (in 2 steps) ****
    Final optimized geometry and variables:
    Molecular point group: c1

    Geometry (in Angstrom), charge = 0, multiplicity = 1:

    N           -0.231235164917     0.232119415578    -0.756668147306
    C            0.852487812525    -0.297885326452    -0.080495680141
    C            2.190549017066    -0.177401448710    -0.798152858521
    N            3.310665712174    -0.721962421143    -0.056281574734
    O            0.734621998284    -0.823132619333     1.036224874670
    H            2.117785382324    -0.724112222823    -1.742186660645
    H            2.353877782185     0.886403925989    -1.066597959718
    C           -1.521300246840     0.268882230215    -0.129862012849
    C           -4.065695120694     0.361386110210     1.017991783349
    C           -3.361497789240    -0.840534066496     0.962933571426
    C           -3.491122998823     1.519618784946     0.500753880179
    C           -2.096329396780    -0.892736693899     0.386639380525
    C           -2.219219389729     1.476289865572    -0.065422345900
    C           -0.091920706140     0.895513597103    -2.056449974447
    C            4.496159134336    -0.864855628462    -0.896088218514
    C            3.597100050814    -0.012007880468     1.189993758725
    H           -3.798665433633    -1.743435851196     1.366593873048
    H           -4.025143934935     2.459042017638     0.546352805921
    H           -1.544961162715    -1.818699052926     0.352957505620
    H           -1.764978978948     2.381229016642    -0.446570751682
    H           -1.078296721601     0.987508520480    -2.502817095496
    H            0.347293631668     1.892994926257    -1.970273724979
    H            0.522481117744     0.303377749156    -2.732774748952
    H            4.271594044451    -1.493386191724    -1.759000656952
    H            4.882798153202     0.104128633817    -1.262528523713
    H            3.889334220407     1.039464296582     1.009977937083
    H            2.724561266773    -0.040467010688     1.834439307368
    H           -5.050494062915     0.395097336859     1.463213386864
    H            5.286377847707    -1.349725768455    -0.323930976972
    H            4.418159796546    -0.511073427729     1.703785029817

*** Psi4 exiting successfully. Buy a developer a beer!
