                               Psi4 1.5 release

  ==> Input File <==

--------------------------------------------------------------------------
molecule {
0 1
 N   -0.092393    0.174310   -0.548130
 C    0.754180   -0.958154   -0.437619
 C    2.191382   -0.840526   -1.024357
 N    3.231669   -0.330736   -0.093084
 O    0.392585   -1.974815    0.154240
 H    2.522770   -1.834950   -1.368768
 H    2.225824   -0.221720   -1.936845
 C   -1.397534    0.143447    0.085570
 C   -3.946350    0.151623    1.307925
 C   -3.588862   -0.883030    0.433422
 C   -3.034834    1.182487    1.571115
 C   -2.328004   -0.896321   -0.178554
 C   -1.768402    1.188149    0.969661
 C    0.063800    1.179934   -1.628701
 C    4.589180   -0.552396   -0.629966
 C    3.044153    1.090336    0.250371
 H   -4.295414   -1.687625    0.222342
 H   -3.307633    1.993458    2.248750
 H   -2.062429   -1.711647   -0.853514
 H   -1.070123    1.999311    1.186794
 H   -0.819700    1.815080   -1.705611
 H    0.918676    1.823693   -1.430346
 H    0.198113    0.687985   -2.592688
 H    4.744315   -1.630178   -0.801371
 H    4.741745   -0.003733   -1.574900
 H    3.116766    1.731782   -0.643687
 H    2.066000    1.229106    0.736738
 H   -4.930073    0.154478    1.781393
 H    5.338672   -0.227108    0.109934
 H    3.811995    1.396231    0.979756
}
set optking {
  frozen_dihedral = ("
    1 2 3 4
    2 1 8 12
    8 1 2 3
    2 3 4 15
  ")
}
set {
  geom_maxiter 400
  g_convergence GAU_LOOSE
  dynamic_level 1
}
memory 8.166666666666666GB
set_num_threads(2)
psi4_io.set_default_path("/scratch/bdw2292/Psi4-25_27_Index_0-farH_in17")
for _ in range(1):
  try:
    set opt_coordinates both
    optimize('wb97x-d/6-311G')
    break
  except OptimizationConvergenceError:
    break
  else:
    try:
      set opt_coordinates cartesian
      optimize('wb97x-d/6-311G')
      break
    except OptimizationConvergenceError:
      pass
clean()
--------------------------------------------------------------------------

    Molecular point group: c1
  Charge       = 0
  Multiplicity = 1
  Basis Set: 6-311G
    Blend: 6-311G
  Basis Set: (6-311G AUX)
    Blend: CC-PVTZ-JKFIT
  @DF-RKS Final Energy:  -613.26904581604344
    Total Energy =                       -613.2690458160435583
    Molecular point group: c1
  Basis Set: 6-311G
    Blend: 6-311G
  Basis Set: (6-311G AUX)
    Blend: CC-PVTZ-JKFIT
  Basis Set: 6-311G
    Blend: 6-311G
  Basis Set: (6-311G AUX)
    Blend: CC-PVTZ-JKFIT
  @DF-RKS Final Energy:  -613.27651987677109
    Total Energy =                       -613.2765198767709762
  Basis Set: 6-311G
    Blend: 6-311G
  Basis Set: (6-311G AUX)
    Blend: CC-PVTZ-JKFIT
  Basis Set: 6-311G
    Blend: 6-311G
  @DF-RKS Final Energy:  -613.27769524597124
    Total Energy =                       -613.2776952459711310
  @DF-RKS Final Energy:  -613.27743232991304
    Total Energy =                       -613.2774323299130401
  @DF-RKS Final Energy:  -613.27795094722785
    Total Energy =                       -613.2779509472277368
  @DF-RKS Final Energy:  -613.27798637942465
    Total Energy =                       -613.2779863794247603
  @DF-RKS Final Energy:  -613.27799966454450
    Total Energy =                       -613.2779996645444953
  @DF-RKS Final Energy:  -613.27803610911224
    Total Energy =                       -613.2780361091121222
  Basis Set: (6-311G AUX)
    Blend: CC-PVTZ-JKFIT
  Basis Set: 6-311G
    Blend: 6-311G
  Basis Set: (6-311G AUX)
    Blend: CC-PVTZ-JKFIT
  @DF-RKS Final Energy:  -613.27803301846848
    Total Energy =                       -613.2780330184683635
  Basis Set: 6-311G
    Blend: 6-311G
  Basis Set: (6-311G AUX)
    Blend: CC-PVTZ-JKFIT
  Charge       = 0
  Multiplicity = 1
  Basis Set: 6-311G
    Blend: 6-311G
  Basis Set: (6-311G AUX)
    Blend: CC-PVTZ-JKFIT

    Orbital Energies [Eh]
    ---------------------

    Doubly Occupied:

       1A    -19.209542     2A    -14.477173     3A    -14.432285
       4A    -10.398544     5A    -10.337323     6A    -10.328652
       7A    -10.322313     8A    -10.305289     9A    -10.304249
      10A    -10.297077    11A    -10.296064    12A    -10.293889
      13A    -10.293186    14A    -10.292377    15A     -1.150279
      16A     -1.052701    17A     -1.032021    18A     -0.964614
      19A     -0.866500    20A     -0.858382    21A     -0.838857
      22A     -0.816243    23A     -0.812309    24A     -0.735653
      25A     -0.713669    26A     -0.697712    27A     -0.655484
      28A     -0.609957    29A     -0.598281    30A     -0.588722
      31A     -0.578009    32A     -0.561267    33A     -0.556359
      34A     -0.537059    35A     -0.532670    36A     -0.527725
      37A     -0.517508    38A     -0.501377    39A     -0.488386
      40A     -0.484521    41A     -0.471522    42A     -0.471344
      43A     -0.461894    44A     -0.456740    45A     -0.450062
      46A     -0.440479    47A     -0.435637    48A     -0.354500
      49A     -0.341095    50A     -0.329014    51A     -0.307594
      52A     -0.285253

  @DF-RKS Final Energy:  -613.27803611449542

   => Energetics <=

    Nuclear Repulsion Energy =            893.8628074319332200
    One-Electron Energy =               -2603.8829526496265316
    Two-Electron Energy =                1157.2814997675698123
    DFT Exchange-Correlation Energy =     -60.5180879651488368
    Empirical Dispersion Energy =          -0.0213026992229140
    VV10 Nonlocal Energy =                  0.0000000000000000
    Total Energy =                       -613.2780361144954213

  Dipole Moment: [D]
     X:     0.1594      Y:     3.6201      Z:    -2.4311     Total:     4.3636

    Molecular point group: c1
  Basis Set: 6-311G
    Blend: 6-311G
  Basis Set: (6-311G AUX)
    Blend: CC-PVTZ-JKFIT

  -Total Gradient:
     Atom            X                  Y                   Z
    ------   -----------------  -----------------  -----------------
       1        0.001756479223     0.001828618107     0.004238175703
       2       -0.002306745395    -0.000158101579    -0.004913886511
       3        0.001555832734    -0.004687348141     0.002630003998
       4       -0.000858931701     0.002794314777    -0.000762416316
       5        0.000047638534     0.000062317261    -0.000060728987
       6        0.000021845734     0.000052790071    -0.000009406876
       7        0.000077945226    -0.000002359593     0.000049106247
       8       -0.000352305466    -0.000418485881    -0.000557506313
       9        0.000023078006    -0.000056401169    -0.000037600263
      10       -0.000038224164     0.000099314420     0.000018673798
      11        0.000015913367    -0.000022149053    -0.000058520685
      12        0.000011582359     0.000088534544    -0.000061435033
      13       -0.000008992811    -0.000059088460    -0.000026193594
      14       -0.000001528560     0.000200300272    -0.000115184516
      15        0.000020594734     0.000431589371    -0.000367242365
      16       -0.000185693966     0.000086056381    -0.000098449730
      17       -0.000011418177     0.000035306317    -0.000002827497
      18       -0.000007646662    -0.000046671632    -0.000012437763
      19       -0.000018943332     0.000064135393     0.000015057343
      20       -0.000013942686    -0.000020615792    -0.000007330509
      21        0.000045211893    -0.000022826355     0.000041613193
      22       -0.000097569364    -0.000046946030     0.000011843508
      23       -0.000024373454     0.000032656757     0.000071900454
      24       -0.000003229280     0.000016273802    -0.000030319023
      25        0.000005148293     0.000026405553     0.000049059147
      26        0.000044069509     0.000023634197    -0.000007041763
      27       -0.000067186029    -0.000042259232     0.000044364272
      28       -0.000010735833    -0.000008939043    -0.000007933536
      29       -0.000039242903    -0.000055429619    -0.000016756527
      30        0.000043920776     0.000004635535     0.000085106764

  **** Optimization is complete! (in 1 steps) ****
    Final optimized geometry and variables:
    Molecular point group: c1

    Geometry (in Angstrom), charge = 0, multiplicity = 1:

    N           -0.091045602774     0.213354535621    -0.587349005415
    C            0.798226261565    -0.831648167787    -0.430488615395
    C            2.194782174273    -0.691271776738    -1.020156220366
    N            3.139304330806    -0.081761706323    -0.079715277086
    O            0.506461112522    -1.848693710026     0.219143634684
    H            2.530068275528    -1.709011284854    -1.205932720552
    H            2.179503647114    -0.162862255010    -1.989535342612
    C           -1.377330861241     0.155030511334     0.053966967799
    C           -3.884076328309     0.140368691700     1.279429816558
    C           -3.485367850664    -0.930457252321     0.481705487315
    C           -3.022854619885     1.219260433589     1.467120590449
    C           -2.238072895205    -0.924828692723    -0.136716565095
    C           -1.769233445659     1.222728269403     0.861835699455
    C            0.114112800288     1.286356806978    -1.571680489493
    C            4.521155728276    -0.230590802875    -0.519281311561
    C            2.840370107568     1.261233146550     0.395996650669
    H           -4.146132251578    -1.774555015605     0.339765931161
    H           -3.318743597764     2.050067043839     2.092885199669
    H           -1.920825567308    -1.760580910753    -0.739958208812
    H           -1.085840682773     2.046601011167     1.020910538895
    H           -0.725029910777     1.972736585194    -1.506589996632
    H            1.026716847527     1.845368091830    -1.383631729345
    H            0.146607042060     0.889366117702    -2.588570766404
    H            4.733049022199    -1.278437666052    -0.731319965551
    H            4.747450360272     0.360141687293    -1.425871562597
    H            2.968091742915     2.036494089707    -0.381717937962
    H            1.823573777791     1.309951350014     0.782443083435
    H           -4.854788342915     0.130487261765     1.755687715553
    H            5.193330382177     0.094804003822     0.274757930414
    H            3.516376274386     1.503141768200     1.216638695025

*** Psi4 exiting successfully. Buy a developer a beer!
