                               Psi4 1.5 release

  ==> Input File <==

--------------------------------------------------------------------------
molecule {
0 1
 N   -0.242595    0.317378   -0.704357
 C    0.828328   -0.506551   -0.279309
 C    2.193138   -0.276478   -0.996271
 N    3.385621   -0.547745   -0.160780
 O    0.697890   -1.307850    0.646449
 H    2.267476   -0.897671   -1.905208
 H    2.293225    0.766025   -1.347345
 C   -1.516498    0.244883   -0.013740
 C   -4.015827    0.151702    1.302986
 C   -3.438662   -1.023941    0.805388
 C   -3.347508    1.372702    1.145272
 C   -2.199577   -0.988721    0.151277
 C   -2.107319    1.430097    0.493760
 C   -0.248153    1.017590   -2.012321
 C    4.615995   -0.614412   -0.968865
 C    3.524570    0.441631    0.925650
 H   -3.954615   -1.978201    0.924963
 H   -3.792443    2.292524    1.529185
 H   -1.758776   -1.913804   -0.223968
 H   -1.600559    2.390901    0.381194
 H   -1.269204    1.208552   -2.346164
 H    0.265805    1.975339   -1.924886
 H    0.235820    0.416482   -2.782539
 H    4.520738   -1.417435   -1.718166
 H    4.813287    0.344777   -1.477197
 H    3.652397    1.463607    0.530484
 H    2.629552    0.400732    1.567117
 H   -4.981405    0.116105    1.811171
 H    5.469469   -0.868584   -0.319335
 H    4.389908    0.178839    1.555426
}
set optking {
  frozen_dihedral = ("
    1 2 3 4
    2 1 8 12
    8 1 2 3
    2 3 4 15
  ")
}
set {
  geom_maxiter 400
  g_convergence GAU_LOOSE
  dynamic_level 1
}
memory 8.166666666666666GB
set_num_threads(2)
psi4_io.set_default_path("/scratch/bdw2292/Psi4-25_27_Index_0-farH_in17")
for _ in range(1):
  try:
    set opt_coordinates both
    optimize('wb97x-d/6-311G')
    break
  except OptimizationConvergenceError:
    break
  else:
    try:
      set opt_coordinates cartesian
      optimize('wb97x-d/6-311G')
      break
    except OptimizationConvergenceError:
      pass
clean()
--------------------------------------------------------------------------

    Molecular point group: c1
  Charge       = 0
  Multiplicity = 1
  Basis Set: 6-311G
    Blend: 6-311G
  Basis Set: (6-311G AUX)
    Blend: CC-PVTZ-JKFIT
  @DF-RKS Final Energy:  -613.27098864589072
    Total Energy =                       -613.2709886458907249
    Molecular point group: c1
  Basis Set: 6-311G
    Blend: 6-311G
  Basis Set: (6-311G AUX)
    Blend: CC-PVTZ-JKFIT
  Basis Set: 6-311G
    Blend: 6-311G
  Basis Set: (6-311G AUX)
    Blend: CC-PVTZ-JKFIT
  @DF-RKS Final Energy:  -613.27730516827194
    Total Energy =                       -613.2773051682720507
  Basis Set: 6-311G
    Blend: 6-311G
  Basis Set: (6-311G AUX)
    Blend: CC-PVTZ-JKFIT
  Basis Set: 6-311G
    Blend: 6-311G
  @DF-RKS Final Energy:  -613.27931591137485
    Total Energy =                       -613.2793159113747379
  @DF-RKS Final Energy:  -613.27717397819254
    Total Energy =                       -613.2771739781925362
  @DF-RKS Final Energy:  -613.27970784304796
    Total Energy =                       -613.2797078430480724
  @DF-RKS Final Energy:  -613.27926585683633
    Total Energy =                       -613.2792658568363322
  @DF-RKS Final Energy:  -613.27970781356680
    Total Energy =                       -613.2797078135666879
  Basis Set: (6-311G AUX)
    Blend: CC-PVTZ-JKFIT
  Basis Set: 6-311G
    Blend: 6-311G
  Basis Set: (6-311G AUX)
    Blend: CC-PVTZ-JKFIT
  @DF-RKS Final Energy:  -613.27975752679049
    Total Energy =                       -613.2797575267904904
  Basis Set: 6-311G
    Blend: 6-311G
  Basis Set: (6-311G AUX)
    Blend: CC-PVTZ-JKFIT
  Charge       = 0
  Multiplicity = 1
  Basis Set: 6-311G
    Blend: 6-311G
  Basis Set: (6-311G AUX)
    Blend: CC-PVTZ-JKFIT

    Orbital Energies [Eh]
    ---------------------

    Doubly Occupied:

       1A    -19.208776     2A    -14.477276     3A    -14.425572
       4A    -10.399416     5A    -10.337429     6A    -10.331771
       7A    -10.325329     8A    -10.301422     9A    -10.296419
      10A    -10.295415    11A    -10.293000    12A    -10.292979
      13A    -10.292077    14A    -10.291139    15A     -1.150752
      16A     -1.053363    17A     -1.030003    18A     -0.964085
      19A     -0.867876    20A     -0.857850    21A     -0.836922
      22A     -0.813675    23A     -0.808591    24A     -0.736806
      25A     -0.712284    26A     -0.691505    27A     -0.651793
      28A     -0.610579    29A     -0.599096    30A     -0.584585
      31A     -0.577200    32A     -0.559540    33A     -0.557326
      34A     -0.537849    35A     -0.535981    36A     -0.522781
      37A     -0.515493    38A     -0.498651    39A     -0.491342
      40A     -0.478063    41A     -0.474036    42A     -0.468469
      43A     -0.457826    44A     -0.451996    45A     -0.446775
      46A     -0.439314    47A     -0.432648    48A     -0.356460
      49A     -0.339176    50A     -0.325808    51A     -0.305220
      52A     -0.282613

  @DF-RKS Final Energy:  -613.27985168469854

   => Energetics <=

    Nuclear Repulsion Energy =            885.1266142646483104
    One-Electron Energy =               -2586.5729385992044627
    Two-Electron Energy =                1148.7019058724722527
    DFT Exchange-Correlation Energy =     -60.5156780967115679
    Empirical Dispersion Energy =          -0.0197551259030408
    VV10 Nonlocal Energy =                  0.0000000000000000
    Total Energy =                       -613.2798516846986558

  Dipole Moment: [D]
     X:    -0.3226      Y:     2.5324      Z:    -3.4828     Total:     4.3182

    Molecular point group: c1
  Basis Set: 6-311G
    Blend: 6-311G
  Basis Set: (6-311G AUX)
    Blend: CC-PVTZ-JKFIT

  -Total Gradient:
     Atom            X                  Y                   Z
    ------   -----------------  -----------------  -----------------
       1        0.001158518491     0.002338929661     0.001415047335
       2       -0.001098319023    -0.002287774424    -0.001933847746
       3        0.000065464309    -0.002717093402    -0.000386263077
       4        0.000140609655     0.002508988280     0.000758365247
       5        0.000120229000    -0.000013159184     0.000320451238
       6       -0.000144951865    -0.000034408387     0.000063293059
       7       -0.000109630535     0.000225455308    -0.000039702293
       8        0.000290714672    -0.000577618960     0.000447769931
       9       -0.000005824594    -0.000065615740    -0.000012013485
      10        0.000067931169    -0.000002787192    -0.000010881968
      11        0.000143973333     0.000065567844    -0.000096445242
      12       -0.000251213287    -0.000013855320    -0.000499230248
      13       -0.000204579026     0.000195163513     0.000109021653
      14       -0.000169976548    -0.000073135420     0.000065217336
      15        0.000028858669    -0.000067334628    -0.000201382353
      16        0.000160185600     0.000326056496     0.000096311950
      17        0.000004992435    -0.000097209345    -0.000009472802
      18       -0.000038895962     0.000057505960     0.000010023513
      19        0.000071123104    -0.000075123326     0.000021013867
      20       -0.000041150301     0.000049771916     0.000023512558
      21       -0.000310354650    -0.000052769689    -0.000180946773
      22        0.000285835435     0.000316404723    -0.000018545559
      23       -0.000025468215    -0.000016799879     0.000012278099
      24       -0.000042063232    -0.000031481859     0.000006296743
      25        0.000008535090     0.000079375258    -0.000022917250
      26       -0.000010317931     0.000078049409    -0.000010482389
      27       -0.000076796975     0.000013871243     0.000035888991
      28       -0.000014811693    -0.000028336827     0.000001908567
      29       -0.000060464992     0.000028355030     0.000115851779
      30        0.000006230746     0.000010614985    -0.000023453127

  **** Optimization is complete! (in 3 steps) ****
    Final optimized geometry and variables:
    Molecular point group: c1

    Geometry (in Angstrom), charge = 0, multiplicity = 1:

    N           -0.247028994606     0.188117216306    -0.753799394416
    C            0.818265548822    -0.525182025168    -0.239181854212
    C            2.133663806119    -0.430668354916    -1.008072219518
    N            3.290723821140    -0.551950543911    -0.140302290130
    O            0.722655009160    -1.181189648465     0.808002914462
    H            2.150782323148    -1.247976416928    -1.735271324154
    H            2.174140604142     0.511388114420    -1.581954043593
    C           -1.488551276095     0.242145967260    -0.034989258381
    C           -3.940795417209     0.412009814471     1.288094078542
    C           -3.367402608659    -0.831266928806     1.025353435414
    C           -3.281635980090     1.572774065696     0.890326959956
    C           -2.148144949191    -0.921657684790     0.360127772091
    C           -2.055397364462     1.488708292131     0.236389440278
    C           -0.184357033650     0.907673902672    -2.032083203908
    C            4.525647572090    -0.768533054525    -0.881708952896
    C            3.390019407715     0.505589545558     0.858108662522
    H           -3.871454190398    -1.736078371900     1.336567010490
    H           -3.713264550227     2.542683501266     1.097275221463
    H           -1.695441205698    -1.881822152803     0.169496238701
    H           -1.530884751284     2.388880097897    -0.055528849055
    H           -1.201768313635     1.103011155103    -2.362648117384
    H            0.344973093672     1.860567645346    -1.949964919898
    H            0.299493856027     0.302051018278    -2.797422348193
    H            4.425837893306    -1.645689118015    -1.522119493816
    H            4.807952412917     0.093725583163    -1.514712772855
    H            3.517575858757     1.506518127348     0.404088699676
    H            2.499328630314     0.507761772696     1.482833390829
    H           -4.889970379904     0.475195190464     1.802199683106
    H            5.339462643441    -0.955552875865    -0.181412149880
    H            4.246637008779     0.311659980221     1.502643973915

*** Psi4 exiting successfully. Buy a developer a beer!
