                               Psi4 1.5 release

  ==> Input File <==

--------------------------------------------------------------------------
molecule {
0 1
 N   -0.019222   -0.015818   -0.363972
 C    0.947735    0.623396    0.385031
 C    2.374915    0.784581   -0.129233
 N    2.913356   -0.259448   -0.992784
 O    0.698348    1.110710    1.504895
 H    2.401906    1.730368   -0.679865
 H    2.976438    0.931633    0.779721
 C   -1.364993   -0.046748    0.143864
 C   -3.988456   -0.130065    1.107065
 C   -2.933097   -0.583995    1.896905
 C   -3.725388    0.374866   -0.162769
 C   -1.627412   -0.545716    1.421019
 C   -2.417816    0.425967   -0.640611
 C    0.147785   -0.343212   -1.791692
 C    4.143626    0.146905   -1.666446
 C    3.053384   -1.535839   -0.292380
 H   -3.125349   -0.970704    2.888452
 H   -4.533494    0.741257   -0.781407
 H   -0.810755   -0.883319    2.038869
 H   -2.220041    0.844649   -1.617815
 H   -0.720659   -0.914682   -2.108151
 H    0.217672    0.559996   -2.403825
 H    1.048416   -0.923227   -1.954344
 H    3.961896    1.040803   -2.263867
 H    4.963792    0.361809   -0.960019
 H    3.779999   -1.482698    0.535333
 H    2.090264   -1.840024    0.119297
 H   -5.002894   -0.164961    1.480105
 H    4.470049   -0.648657   -2.336423
 H    3.381806   -2.304390   -0.992415
}
memory 8.166666666666666GB
set_num_threads(2)
psi4_io.set_default_path("/scratch/bdw2292/Psi4-25_27_Index_0-farH_in17")
set freeze_core True
E, wfn = energy('wb97x-d/6-311+G*',return_wfn=True)
oeprop(wfn,"WIBERG_LOWDIN_INDICES")
clean()
--------------------------------------------------------------------------

    Molecular point group: c1

    Geometry (in Angstrom), charge = 0, multiplicity = 1:

       Center              X                  Y                   Z               Mass
    ------------   -----------------  -----------------  -----------------  -----------------
         N           -0.019222052911    -0.015817914231    -0.363971938199    14.003074004430
         C            0.947734947089     0.623396085769     0.385031061801    12.000000000000
         C            2.374914947089     0.784581085769    -0.129232938199    12.000000000000
         N            2.913355947089    -0.259447914231    -0.992783938199    14.003074004430
         O            0.698347947089     1.110710085769     1.504895061801    15.994914619570
         H            2.401905947089     1.730368085769    -0.679864938199     1.007825032230
         H            2.976437947089     0.931633085769     0.779721061801     1.007825032230
         C           -1.364993052911    -0.046747914231     0.143864061801    12.000000000000
         C           -3.988456052911    -0.130064914231     1.107065061801    12.000000000000
         C           -2.933097052911    -0.583994914231     1.896905061801    12.000000000000
         C           -3.725388052911     0.374866085769    -0.162768938199    12.000000000000
         C           -1.627412052911    -0.545715914231     1.421019061801    12.000000000000
         C           -2.417816052911     0.425967085769    -0.640610938199    12.000000000000
         C            0.147784947089    -0.343211914231    -1.791691938199    12.000000000000
         C            4.143625947089     0.146905085769    -1.666445938199    12.000000000000
         C            3.053383947089    -1.535838914231    -0.292379938199    12.000000000000
         H           -3.125349052911    -0.970703914231     2.888452061801     1.007825032230
         H           -4.533494052911     0.741257085769    -0.781406938199     1.007825032230
         H           -0.810755052911    -0.883318914231     2.038869061801     1.007825032230
         H           -2.220041052911     0.844649085769    -1.617814938199     1.007825032230
         H           -0.720659052911    -0.914681914231    -2.108150938199     1.007825032230
         H            0.217671947089     0.559996085769    -2.403824938199     1.007825032230
         H            1.048415947089    -0.923226914231    -1.954343938199     1.007825032230
         H            3.961895947089     1.040803085769    -2.263866938199     1.007825032230
         H            4.963791947089     0.361809085769    -0.960018938199     1.007825032230
         H            3.779998947089    -1.482697914231     0.535333061801     1.007825032230
         H            2.090263947089    -1.840023914231     0.119297061801     1.007825032230
         H           -5.002894052911    -0.164960914231     1.480105061801     1.007825032230
         H            4.470048947089    -0.648656914231    -2.336422938199     1.007825032230
         H            3.381805947089    -2.304389914231    -0.992414938199     1.007825032230

  Charge       = 0
  Multiplicity = 1
  Basis Set: 6-311+G*
    Blend: 6-311+G*
  Basis Set: (6-311+G* AUX)
    Blend: HEAVY-AUG-CC-PVTZ-JKFIT

    Orbital Energies [Eh]
    ---------------------

    Doubly Occupied:

       1A    -19.208589     2A    -14.474976     3A    -14.438073
       4A    -10.392982     5A    -10.330517     6A    -10.322634
       7A    -10.312534     8A    -10.310299     9A    -10.308180
      10A    -10.290684    11A    -10.289852    12A    -10.287505
      13A    -10.286061    14A    -10.285442    15A     -1.133318
      16A     -1.044910    17A     -1.034703    18A     -0.954749
      19A     -0.857697    20A     -0.851397    21A     -0.832620
      22A     -0.817722    23A     -0.802699    24A     -0.727799
      25A     -0.709734    26A     -0.699443    27A     -0.652242
      28A     -0.604369    29A     -0.593162    30A     -0.583158
      31A     -0.574979    32A     -0.564740    33A     -0.551967
      34A     -0.533972    35A     -0.527187    36A     -0.518030
      37A     -0.507454    38A     -0.500342    39A     -0.493509
      40A     -0.482544    41A     -0.480765    42A     -0.469057
      43A     -0.464163    44A     -0.459286    45A     -0.443128
      46A     -0.436809    47A     -0.431176    48A     -0.361410
      49A     -0.340673    50A     -0.326136    51A     -0.309254
      52A     -0.300614

  @DF-RKS Final Energy:  -613.45870582643010

   => Energetics <=

    Nuclear Repulsion Energy =            894.2301448811223281
    One-Electron Energy =               -2605.2751907108831801
    Two-Electron Energy =                1158.1396678365742900
    DFT Exchange-Correlation Energy =     -60.5323836617183701
    Empirical Dispersion Energy =          -0.0209441715250045
    VV10 Nonlocal Energy =                  0.0000000000000000
    Total Energy =                       -613.4587058264299912

  Dipole Moment: [D]
     X:     1.1313      Y:    -1.4916      Z:    -3.2422     Total:     3.7439

*** Psi4 exiting successfully. Buy a developer a beer!
