                               Psi4 1.5 release

  ==> Input File <==

--------------------------------------------------------------------------
molecule {
0 1
 N   -0.025411   -0.208933   -0.264947
 C    0.926910    0.537910    0.400712
 C    2.413424    0.599722    0.028097
 N    2.990829   -0.185877   -1.065223
 O    0.634218    1.215445    1.405266
 H    2.581118    1.655123   -0.193320
 H    2.936239    0.401852    0.977544
 C   -1.399495   -0.084062    0.165721
 C   -4.053456    0.135363    1.038359
 C   -3.041856   -0.201927    1.936656
 C   -3.731154    0.366628   -0.294224
 C   -1.725335   -0.311869    1.506206
 C   -2.410923    0.262712   -0.730299
 C    0.170319   -0.760930   -1.616131
 C    4.324649    0.314028   -1.419620
 C    3.085749   -1.609646   -0.692571
 H   -3.277224   -0.378471    2.977250
 H   -4.502742    0.636727   -1.002383
 H   -0.944069   -0.558120    2.206703
 H   -2.187979    0.467970   -1.765912
 H   -0.440469   -0.231049   -2.344992
 H    1.203911   -0.636857   -1.915604
 H   -0.113429   -1.813001   -1.626752
 H    4.257013    1.347331   -1.759038
 H    5.025338    0.267770   -0.569669
 H    3.792756   -1.763650    0.138077
 H    2.114246   -1.987175   -0.379441
 H   -5.077373    0.220132    1.375406
 H    4.729040   -0.285887   -2.234078
 H    3.422635   -2.192300   -1.549300
}
memory 8.166666666666666GB
set_num_threads(2)
psi4_io.set_default_path("/scratch/bdw2292/Psi4-25_27_Index_0-farH_in17")
set freeze_core True
E, wfn = energy('wb97x-d/6-311+G*',return_wfn=True)
oeprop(wfn,"WIBERG_LOWDIN_INDICES")
clean()
--------------------------------------------------------------------------

    Molecular point group: c1

    Geometry (in Angstrom), charge = 0, multiplicity = 1:

       Center              X                  Y                   Z               Mass
    ------------   -----------------  -----------------  -----------------  -----------------
         N           -0.025411063318    -0.208932896093    -0.264947108701    14.003074004430
         C            0.926909936682     0.537910103907     0.400711891299    12.000000000000
         C            2.413423936682     0.599722103907     0.028096891299    12.000000000000
         N            2.990828936682    -0.185876896093    -1.065223108701    14.003074004430
         O            0.634217936682     1.215445103907     1.405265891299    15.994914619570
         H            2.581117936682     1.655123103907    -0.193320108701     1.007825032230
         H            2.936238936682     0.401852103907     0.977543891299     1.007825032230
         C           -1.399495063318    -0.084061896093     0.165720891299    12.000000000000
         C           -4.053456063318     0.135363103907     1.038358891299    12.000000000000
         C           -3.041856063318    -0.201926896093     1.936655891299    12.000000000000
         C           -3.731154063318     0.366628103907    -0.294224108701    12.000000000000
         C           -1.725335063318    -0.311868896093     1.506205891299    12.000000000000
         C           -2.410923063318     0.262712103907    -0.730299108701    12.000000000000
         C            0.170318936682    -0.760929896093    -1.616131108701    12.000000000000
         C            4.324648936682     0.314028103907    -1.419620108701    12.000000000000
         C            3.085748936682    -1.609645896093    -0.692571108701    12.000000000000
         H           -3.277224063318    -0.378470896093     2.977249891299     1.007825032230
         H           -4.502742063318     0.636727103907    -1.002383108701     1.007825032230
         H           -0.944069063318    -0.558119896093     2.206702891299     1.007825032230
         H           -2.187979063318     0.467970103907    -1.765912108701     1.007825032230
         H           -0.440469063318    -0.231048896093    -2.344992108701     1.007825032230
         H            1.203910936682    -0.636856896093    -1.915604108701     1.007825032230
         H           -0.113429063318    -1.813000896093    -1.626752108701     1.007825032230
         H            4.257012936682     1.347331103907    -1.759038108701     1.007825032230
         H            5.025337936682     0.267770103907    -0.569669108701     1.007825032230
         H            3.792755936682    -1.763649896093     0.138076891299     1.007825032230
         H            2.114245936682    -1.987174896093    -0.379441108701     1.007825032230
         H           -5.077373063318     0.220132103907     1.375405891299     1.007825032230
         H            4.729039936682    -0.285886896093    -2.234078108701     1.007825032230
         H            3.422634936682    -2.192299896093    -1.549300108701     1.007825032230

  Charge       = 0
  Multiplicity = 1
  Basis Set: 6-311+G*
    Blend: 6-311+G*
  Basis Set: (6-311+G* AUX)
    Blend: HEAVY-AUG-CC-PVTZ-JKFIT

    Orbital Energies [Eh]
    ---------------------

    Doubly Occupied:

       1A    -19.206853     2A    -14.477597     3A    -14.444441
       4A    -10.396175     5A    -10.330878     6A    -10.325045
       7A    -10.311180     8A    -10.310422     9A    -10.309624
      10A    -10.291076    11A    -10.289406    12A    -10.286818
      13A    -10.285871    14A    -10.284866    15A     -1.134043
      16A     -1.044314    17A     -1.036613    18A     -0.954557
      19A     -0.856101    20A     -0.850936    21A     -0.833300
      22A     -0.817274    23A     -0.802423    24A     -0.729179
      25A     -0.710934    26A     -0.701082    27A     -0.653341
      28A     -0.606510    29A     -0.593594    30A     -0.582401
      31A     -0.575946    32A     -0.566196    33A     -0.553780
      34A     -0.532440    35A     -0.531036    36A     -0.519080
      37A     -0.507299    38A     -0.503145    39A     -0.494639
      40A     -0.483176    41A     -0.474830    42A     -0.468415
      43A     -0.461801    44A     -0.458366    45A     -0.441550
      46A     -0.435788    47A     -0.429212    48A     -0.361418
      49A     -0.343070    50A     -0.325392    51A     -0.315979
      52A     -0.303401

  @DF-RKS Final Energy:  -613.45228344541874

   => Energetics <=

    Nuclear Repulsion Energy =            890.3437821925972457
    One-Electron Energy =               -2597.4373250976432246
    Two-Electron Energy =                1154.1909406593724725
    DFT Exchange-Correlation Energy =     -60.5291508352408201
    Empirical Dispersion Energy =          -0.0205303645045344
    VV10 Nonlocal Energy =                  0.0000000000000000
    Total Energy =                       -613.4522834454188569

  Dipole Moment: [D]
     X:     1.4336      Y:    -1.9837      Z:    -2.7302     Total:     3.6666

*** Psi4 exiting successfully. Buy a developer a beer!
