                               Psi4 1.5 release

  ==> Input File <==

--------------------------------------------------------------------------
molecule {
0 1
 N   -0.128484    0.262298   -0.549676
 C    0.940896    0.519249    0.272122
 C    2.278079    0.780908   -0.399642
 N    3.040453   -0.461299   -0.569536
 O    0.837235    0.576346    1.511854
 H    2.149689    1.245566   -1.375493
 H    2.807600    1.497823    0.246552
 C   -1.447846    0.107985   -0.008522
 C   -4.053136   -0.204983    0.939633
 C   -3.013427   -0.961762    1.477579
 C   -3.786473    0.709983   -0.076336
 C   -1.713179   -0.814709    1.002662
 C   -2.485669    0.870140   -0.545948
 C    0.045407    0.025659   -1.989199
 C    4.170322   -0.291867   -1.481585
 C    3.441827   -1.076325    0.697166
 H   -3.214498   -1.671572    2.268268
 H   -4.585404    1.306062   -0.495926
 H   -0.904195   -1.390437    1.423695
 H   -2.268750    1.591675   -1.322311
 H   -0.795828   -0.564476   -2.343156
 H    0.081061    0.956194   -2.560794
 H    0.957259   -0.543952   -2.158535
 H    3.819485    0.075938   -2.446600
 H    4.925973    0.412609   -1.093028
 H    4.173078   -0.455178    1.241132
 H    2.578812   -1.215899    1.342574
 H   -5.061357   -0.325234    1.311506
 H    4.654032   -1.254964   -1.642547
 H    3.890074   -2.048820    0.495557
}
memory 8.166666666666666GB
set_num_threads(2)
psi4_io.set_default_path("/scratch/bdw2292/Psi4-25_27_Index_0-farH_in17")
set freeze_core True
E, wfn = energy('wb97x-d/6-311+G*',return_wfn=True)
oeprop(wfn,"WIBERG_LOWDIN_INDICES")
clean()
--------------------------------------------------------------------------

    Molecular point group: c1

    Geometry (in Angstrom), charge = 0, multiplicity = 1:

       Center              X                  Y                   Z               Mass
    ------------   -----------------  -----------------  -----------------  -----------------
         N           -0.128484042630     0.262298050743    -0.549675959407    14.003074004430
         C            0.940895957370     0.519249050743     0.272122040593    12.000000000000
         C            2.278078957370     0.780908050743    -0.399641959407    12.000000000000
         N            3.040452957370    -0.461298949257    -0.569535959407    14.003074004430
         O            0.837234957370     0.576346050743     1.511854040593    15.994914619570
         H            2.149688957370     1.245566050743    -1.375492959407     1.007825032230
         H            2.807599957370     1.497823050743     0.246552040593     1.007825032230
         C           -1.447846042630     0.107985050743    -0.008521959407    12.000000000000
         C           -4.053136042630    -0.204982949257     0.939633040593    12.000000000000
         C           -3.013427042630    -0.961761949257     1.477579040593    12.000000000000
         C           -3.786473042630     0.709983050743    -0.076335959407    12.000000000000
         C           -1.713179042630    -0.814708949257     1.002662040593    12.000000000000
         C           -2.485669042630     0.870140050743    -0.545947959407    12.000000000000
         C            0.045406957370     0.025659050743    -1.989198959407    12.000000000000
         C            4.170321957370    -0.291866949257    -1.481584959407    12.000000000000
         C            3.441826957370    -1.076324949257     0.697166040593    12.000000000000
         H           -3.214498042630    -1.671571949257     2.268268040593     1.007825032230
         H           -4.585404042630     1.306062050743    -0.495925959407     1.007825032230
         H           -0.904195042630    -1.390436949257     1.423695040593     1.007825032230
         H           -2.268750042630     1.591675050743    -1.322310959407     1.007825032230
         H           -0.795828042630    -0.564475949257    -2.343155959407     1.007825032230
         H            0.081060957370     0.956194050743    -2.560793959407     1.007825032230
         H            0.957258957370    -0.543951949257    -2.158534959407     1.007825032230
         H            3.819484957370     0.075938050743    -2.446599959407     1.007825032230
         H            4.925972957370     0.412609050743    -1.093027959407     1.007825032230
         H            4.173077957370    -0.455177949257     1.241132040593     1.007825032230
         H            2.578811957370    -1.215898949257     1.342574040593     1.007825032230
         H           -5.061357042630    -0.325233949257     1.311506040593     1.007825032230
         H            4.654031957370    -1.254963949257    -1.642546959407     1.007825032230
         H            3.890073957370    -2.048819949257     0.495557040593     1.007825032230

  Charge       = 0
  Multiplicity = 1
  Basis Set: 6-311+G*
    Blend: 6-311+G*
  Basis Set: (6-311+G* AUX)
    Blend: HEAVY-AUG-CC-PVTZ-JKFIT

    Orbital Energies [Eh]
    ---------------------

    Doubly Occupied:

       1A    -19.210012     2A    -14.474155     3A    -14.436207
       4A    -10.390282     5A    -10.332132     6A    -10.322837
       7A    -10.318808     8A    -10.306218     9A    -10.294647
      10A    -10.293644    11A    -10.292986    12A    -10.291009
      13A    -10.289932    14A    -10.289136    15A     -1.133984
      16A     -1.047477    17A     -1.028334    18A     -0.958599
      19A     -0.863228    20A     -0.853882    21A     -0.831824
      22A     -0.808617    23A     -0.806173    24A     -0.730260
      25A     -0.710323    26A     -0.694903    27A     -0.652371
      28A     -0.605688    29A     -0.597023    30A     -0.581360
      31A     -0.577456    32A     -0.558474    33A     -0.556259
      34A     -0.533958    35A     -0.530873    36A     -0.519354
      37A     -0.511388    38A     -0.494338    39A     -0.490678
      40A     -0.484089    41A     -0.474850    42A     -0.462562
      43A     -0.462089    44A     -0.455014    45A     -0.448669
      46A     -0.441364    47A     -0.434538    48A     -0.356827
      49A     -0.342824    50A     -0.330121    51A     -0.309144
      52A     -0.302124

  @DF-RKS Final Energy:  -613.46184333631038

   => Energetics <=

    Nuclear Repulsion Energy =            889.7591233922873926
    One-Electron Energy =               -2596.3258499129083248
    Two-Electron Energy =                1153.6563853798884338
    DFT Exchange-Correlation Energy =     -60.5311303259702029
    Empirical Dispersion Energy =          -0.0203718696074612
    VV10 Nonlocal Energy =                  0.0000000000000000
    Total Energy =                       -613.4618433363102667

  Dipole Moment: [D]
     X:     0.2061      Y:    -0.3853      Z:    -3.4834     Total:     3.5107

*** Psi4 exiting successfully. Buy a developer a beer!
