                               Psi4 1.5 release

  ==> Input File <==

--------------------------------------------------------------------------
molecule {
0 1
 N   -0.231235    0.232119   -0.756668
 C    0.852488   -0.297885   -0.080496
 C    2.190549   -0.177401   -0.798153
 N    3.310666   -0.721962   -0.056282
 O    0.734622   -0.823133    1.036225
 H    2.117785   -0.724112   -1.742187
 H    2.353878    0.886404   -1.066598
 C   -1.521300    0.268882   -0.129862
 C   -4.065695    0.361386    1.017992
 C   -3.361498   -0.840534    0.962934
 C   -3.491123    1.519619    0.500754
 C   -2.096329   -0.892737    0.386639
 C   -2.219219    1.476290   -0.065422
 C   -0.091921    0.895514   -2.056450
 C    4.496159   -0.864856   -0.896088
 C    3.597100   -0.012008    1.189994
 H   -3.798665   -1.743436    1.366594
 H   -4.025144    2.459042    0.546353
 H   -1.544961   -1.818699    0.352958
 H   -1.764979    2.381229   -0.446571
 H   -1.078297    0.987509   -2.502817
 H    0.347294    1.892995   -1.970274
 H    0.522481    0.303378   -2.732775
 H    4.271594   -1.493386   -1.759001
 H    4.882798    0.104129   -1.262529
 H    3.889334    1.039464    1.009978
 H    2.724561   -0.040467    1.834439
 H   -5.050494    0.395097    1.463213
 H    5.286378   -1.349726   -0.323931
 H    4.418160   -0.511073    1.703785
}
memory 8.166666666666666GB
set_num_threads(2)
psi4_io.set_default_path("/scratch/bdw2292/Psi4-25_27_Index_0-farH_in17")
set freeze_core True
E, wfn = energy('wb97x-d/6-311+G*',return_wfn=True)
oeprop(wfn,"WIBERG_LOWDIN_INDICES")
clean()
--------------------------------------------------------------------------

    Molecular point group: c1

    Geometry (in Angstrom), charge = 0, multiplicity = 1:

       Center              X                  Y                   Z               Mass
    ------------   -----------------  -----------------  -----------------  -----------------
         N           -0.231235072980     0.232118996996    -0.756668025744    14.003074004430
         C            0.852487927020    -0.297885003004    -0.080496025744    12.000000000000
         C            2.190548927020    -0.177401003004    -0.798153025744    12.000000000000
         N            3.310665927020    -0.721962003004    -0.056282025744    14.003074004430
         O            0.734621927020    -0.823133003004     1.036224974256    15.994914619570
         H            2.117784927020    -0.724112003004    -1.742187025744     1.007825032230
         H            2.353877927020     0.886403996996    -1.066598025744     1.007825032230
         C           -1.521300072980     0.268881996996    -0.129862025744    12.000000000000
         C           -4.065695072980     0.361385996996     1.017991974256    12.000000000000
         C           -3.361498072980    -0.840534003004     0.962933974256    12.000000000000
         C           -3.491123072980     1.519618996996     0.500753974256    12.000000000000
         C           -2.096329072980    -0.892737003004     0.386638974256    12.000000000000
         C           -2.219219072980     1.476289996996    -0.065422025744    12.000000000000
         C           -0.091921072980     0.895513996996    -2.056450025744    12.000000000000
         C            4.496158927020    -0.864856003004    -0.896088025744    12.000000000000
         C            3.597099927020    -0.012008003004     1.189993974256    12.000000000000
         H           -3.798665072980    -1.743436003004     1.366593974256     1.007825032230
         H           -4.025144072980     2.459041996996     0.546352974256     1.007825032230
         H           -1.544961072980    -1.818699003004     0.352957974256     1.007825032230
         H           -1.764979072980     2.381228996996    -0.446571025744     1.007825032230
         H           -1.078297072980     0.987508996996    -2.502817025744     1.007825032230
         H            0.347293927020     1.892994996996    -1.970274025744     1.007825032230
         H            0.522480927020     0.303377996996    -2.732775025744     1.007825032230
         H            4.271593927020    -1.493386003004    -1.759001025744     1.007825032230
         H            4.882797927020     0.104128996996    -1.262529025744     1.007825032230
         H            3.889333927020     1.039463996996     1.009977974256     1.007825032230
         H            2.724560927020    -0.040467003004     1.834438974256     1.007825032230
         H           -5.050494072980     0.395096996996     1.463212974256     1.007825032230
         H            5.286377927020    -1.349726003004    -0.323931025744     1.007825032230
         H            4.418159927020    -0.511073003004     1.703784974256     1.007825032230

  Charge       = 0
  Multiplicity = 1
  Basis Set: 6-311+G*
    Blend: 6-311+G*
  Basis Set: (6-311+G* AUX)
    Blend: HEAVY-AUG-CC-PVTZ-JKFIT

    Orbital Energies [Eh]
    ---------------------

    Doubly Occupied:

       1A    -19.210982     2A    -14.476223     3A    -14.426112
       4A    -10.394231     5A    -10.333942     6A    -10.330666
       7A    -10.324995     8A    -10.300247     9A    -10.294541
      10A    -10.293471    11A    -10.290820    12A    -10.289664
      13A    -10.288565    14A    -10.285894    15A     -1.137206
      16A     -1.049970    17A     -1.024133    18A     -0.959236
      19A     -0.865403    20A     -0.854577    21A     -0.834013
      22A     -0.809339    23A     -0.801462    24A     -0.734019
      25A     -0.709600    26A     -0.688586    27A     -0.648164
      28A     -0.609561    29A     -0.597738    30A     -0.584585
      31A     -0.576223    32A     -0.556488    33A     -0.555255
      34A     -0.538403    35A     -0.533867    36A     -0.520421
      37A     -0.512321    38A     -0.501041    39A     -0.496249
      40A     -0.477022    41A     -0.471404    42A     -0.467584
      43A     -0.455489    44A     -0.449299    45A     -0.445001
      46A     -0.440029    47A     -0.432732    48A     -0.361553
      49A     -0.342895    50A     -0.329638    51A     -0.308471
      52A     -0.294128

  @DF-RKS Final Energy:  -613.45936544194615

   => Energetics <=

    Nuclear Repulsion Energy =            882.7748480318241491
    One-Electron Energy =               -2582.3735296153622585
    Two-Electron Energy =                1146.6896163930898638
    DFT Exchange-Correlation Energy =     -60.5307082576470918
    Empirical Dispersion Energy =          -0.0195919938509465
    VV10 Nonlocal Energy =                  0.0000000000000000
    Total Energy =                       -613.4593654419462609

  Dipole Moment: [D]
     X:    -0.1601      Y:     2.0787      Z:    -3.3386     Total:     3.9361

*** Psi4 exiting successfully. Buy a developer a beer!
