                               Psi4 1.5 release

  ==> Input File <==

--------------------------------------------------------------------------
molecule {
0 1
 N   -0.044243    0.108447   -0.466442
 C    0.966278    0.665503    0.282365
 C    2.349448    0.769485   -0.345537
 N    2.923836   -0.531411   -0.693573
 O    0.787649    1.086875    1.440306
 H    2.290634    1.369446   -1.257310
 H    2.962559    1.317943    0.381550
 C   -1.383376    0.079525    0.046013
 C   -4.014862   -0.056060    0.977491
 C   -2.966388   -0.546483    1.754943
 C   -3.742421    0.504238   -0.267397
 C   -1.656111   -0.486809    1.292374
 C   -2.430837    0.576703   -0.731196
 C    0.149036   -0.271069   -1.872185
 C    4.090803   -0.422114   -1.564616
 C    3.151545   -1.387255    0.469562
 H   -3.168550   -0.982115    2.723888
 H   -4.547068    0.892143   -0.877247
 H   -0.843050   -0.855026    1.897505
 H   -2.222575    1.025973   -1.692408
 H   -0.597665   -1.016727   -2.135059
 H    0.039355    0.584926   -2.544918
 H    1.138074   -0.707350   -1.984323
 H    3.828240    0.133032   -2.466123
 H    4.940232    0.086497   -1.078571
 H    3.916802   -0.976846    1.148540
 H    2.227049   -1.505400    1.033343
 H   -5.032357   -0.108694    1.339646
 H    4.415313   -1.418909   -1.862913
 H    3.473772   -2.373079    0.135444
}
memory 8.166666666666666GB
set_num_threads(2)
psi4_io.set_default_path("/scratch/bdw2292/Psi4-25_27_Index_0-farH_in17")
set freeze_core True
E, wfn = energy('wb97x-d/6-311+G*',return_wfn=True)
oeprop(wfn,"WIBERG_LOWDIN_INDICES")
clean()
--------------------------------------------------------------------------

    Molecular point group: c1

    Geometry (in Angstrom), charge = 0, multiplicity = 1:

       Center              X                  Y                   Z               Mass
    ------------   -----------------  -----------------  -----------------  -----------------
         N           -0.044243001489     0.108447111997    -0.466441992405    14.003074004430
         C            0.966277998511     0.665503111997     0.282365007595    12.000000000000
         C            2.349447998511     0.769485111997    -0.345536992405    12.000000000000
         N            2.923835998511    -0.531410888003    -0.693572992405    14.003074004430
         O            0.787648998511     1.086875111997     1.440306007595    15.994914619570
         H            2.290633998511     1.369446111997    -1.257309992405     1.007825032230
         H            2.962558998511     1.317943111997     0.381550007595     1.007825032230
         C           -1.383376001489     0.079525111997     0.046013007595    12.000000000000
         C           -4.014862001489    -0.056059888003     0.977491007595    12.000000000000
         C           -2.966388001489    -0.546482888003     1.754943007595    12.000000000000
         C           -3.742421001489     0.504238111997    -0.267396992405    12.000000000000
         C           -1.656111001489    -0.486808888003     1.292374007595    12.000000000000
         C           -2.430837001489     0.576703111997    -0.731195992405    12.000000000000
         C            0.149035998511    -0.271068888003    -1.872184992405    12.000000000000
         C            4.090802998511    -0.422113888003    -1.564615992405    12.000000000000
         C            3.151544998511    -1.387254888003     0.469562007595    12.000000000000
         H           -3.168550001489    -0.982114888003     2.723888007595     1.007825032230
         H           -4.547068001489     0.892143111997    -0.877246992405     1.007825032230
         H           -0.843050001489    -0.855025888003     1.897505007595     1.007825032230
         H           -2.222575001489     1.025973111997    -1.692407992405     1.007825032230
         H           -0.597665001489    -1.016726888003    -2.135058992405     1.007825032230
         H            0.039354998511     0.584926111997    -2.544917992405     1.007825032230
         H            1.138073998511    -0.707349888003    -1.984322992405     1.007825032230
         H            3.828239998511     0.133032111997    -2.466122992405     1.007825032230
         H            4.940231998511     0.086497111997    -1.078570992405     1.007825032230
         H            3.916801998511    -0.976845888003     1.148540007595     1.007825032230
         H            2.227048998511    -1.505399888003     1.033343007595     1.007825032230
         H           -5.032357001489    -0.108693888003     1.339646007595     1.007825032230
         H            4.415312998511    -1.418908888003    -1.862912992405     1.007825032230
         H            3.473771998511    -2.373078888003     0.135444007595     1.007825032230

  Charge       = 0
  Multiplicity = 1
  Basis Set: 6-311+G*
    Blend: 6-311+G*
  Basis Set: (6-311+G* AUX)
    Blend: HEAVY-AUG-CC-PVTZ-JKFIT

    Orbital Energies [Eh]
    ---------------------

    Doubly Occupied:

       1A    -19.210199     2A    -14.473966     3A    -14.438796
       4A    -10.390879     5A    -10.331214     6A    -10.321255
       7A    -10.314267     8A    -10.310185     9A    -10.303999
      10A    -10.291742    11A    -10.291016    12A    -10.288821
      13A    -10.287303    14A    -10.286642    15A     -1.133826
      16A     -1.046551    17A     -1.033076    18A     -0.956178
      19A     -0.861163    20A     -0.852190    21A     -0.831837
      22A     -0.816026    23A     -0.803092    24A     -0.728935
      25A     -0.709228    26A     -0.698184    27A     -0.652176
      28A     -0.604276    29A     -0.595702    30A     -0.583402
      31A     -0.575884    32A     -0.563316    33A     -0.553807
      34A     -0.533302    35A     -0.529909    36A     -0.517943
      37A     -0.508390    38A     -0.493312    39A     -0.489320
      40A     -0.487342    41A     -0.476856    42A     -0.472183
      43A     -0.462439    44A     -0.460802    45A     -0.446490
      46A     -0.440624    47A     -0.432809    48A     -0.360246
      49A     -0.341263    50A     -0.327579    51A     -0.306187
      52A     -0.303832

  @DF-RKS Final Energy:  -613.46369872110813

   => Energetics <=

    Nuclear Repulsion Energy =            894.1378084038015004
    One-Electron Energy =               -2605.0703315869241123
    Two-Electron Energy =                1158.0236311688031492
    DFT Exchange-Correlation Energy =     -60.5339525458066987
    Empirical Dispersion Energy =          -0.0208541609820497
    VV10 Nonlocal Energy =                  0.0000000000000000
    Total Energy =                       -613.4636987211081305

  Dipole Moment: [D]
     X:     0.8588      Y:    -1.4468      Z:    -3.2795     Total:     3.6859

*** Psi4 exiting successfully. Buy a developer a beer!
