                               Psi4 1.3.2 release

  ==> Input File <==

--------------------------------------------------------------------------
molecule {
1 1
H -0.629170742012 -0.668177243782 -0.464172182973
N 0.000041163373 -0.000018505242 0.000024656053
H -0.486161057204 0.431583579298 0.796874202910
H 0.277328732592 0.730562064628 -0.668704587620
H 0.837431128296 -0.493711281831 0.335659987848
}
memory 8.333333333333334GB
set_num_threads(1)
psi4_io.set_default_path("/scratch/bdw2292/Psi4-74_Index_0-farH_in17")
set freeze_core True
set PROPERTIES_ORIGIN ["COM"]
set cubeprop_tasks ['esp']
E, wfn = properties('mp2/6-311G**',properties=['dipole'],return_wfn=True)
cubeprop(wfn)
fchk(wfn, "74_Index_0-dma.fchk")
clean()
--------------------------------------------------------------------------

    Molecular point group: c1
  Charge       = 1
  Multiplicity = 1
  Basis Set: 6-311G**
    Blend: 6-311G**
  Basis Set: (6-311G** AUX)
    Blend: CC-PVTZ-JKFIT

    Orbital Energies [Eh]
    ---------------------

    Doubly Occupied:

       1A    -15.941058     2A     -1.543538     3A     -0.997252
       4A     -0.997160     5A     -0.997104

  @DF-RHF Final Energy:   -56.55784435209488

   => Energetics <=

    Nuclear Repulsion Energy =             16.2974856203962908
    One-Electron Energy =                -104.7584332637254363
    Two-Electron Energy =                  31.9031032912342773
    Total Energy =                        -56.5578443520948753
  Basis Set: (6-311G** AUX)
    Blend: CC-PVTZ-RI
    Molecular point group: c1

    Geometry (in Angstrom), charge = 1, multiplicity = 1:

       Center              X                  Y                   Z               Mass
    ------------   -----------------  -----------------  -----------------  -----------------
         H           -0.629170742012    -0.668177243782    -0.464172182973     1.007825032230
         N            0.000041163373    -0.000018505242     0.000024656053    14.003074004430
         H           -0.486161057204     0.431583579298     0.796874202910     1.007825032230
         H            0.277328732592     0.730562064628    -0.668704587620     1.007825032230
         H            0.837431128296    -0.493711281831     0.335659987848     1.007825032230

  Basis Set: 6-311G**
    Blend: 6-311G**
  Basis Set: (6-311G** AUX)
    Blend: CC-PVTZ-JKFIT
	 Reference Energy          =     -56.5578443520948753 [Eh]
	 Singles Energy            =      -0.0000000000000000 [Eh]
	 Same-Spin Energy          =      -0.0427457044788795 [Eh]
	 Opposite-Spin Energy      =      -0.1544330657762522 [Eh]
	 Correlation Energy        =      -0.1971787702551317 [Eh]
	 Total Energy              =     -56.7550231223500035 [Eh]

	 ================> DF-SCS-MP2 Energies <==================
	-----------------------------------------------------------
	 SCS Same-Spin Scale       =       0.3333333333333333 [-]
	 SCS Opposite-Spin Scale   =       1.2000000000000000 [-]
	 SCS Same-Spin Energy      =      -0.0142485681596265 [Eh]
	 SCS Opposite-Spin Energy  =      -0.1853196789315026 [Eh]
	 SCS Correlation Energy    =      -0.1995682470911291 [Eh]
	 SCS Total Energy          =     -56.7574125991860043 [Eh]
	-----------------------------------------------------------

  Dipole Moment: [D]
     X:    -0.0008      Y:     0.0004      Z:    -0.0005     Total:     0.0010

  Basis Set: 6-311G**
    Blend: 6-311G**
*** Psi4 exiting successfully. Buy a developer a beer!
