                               Psi4 1.3.2 release

  ==> Input File <==

--------------------------------------------------------------------------
molecule {
1 1
H -0.629170742012 -0.668177243782 -0.464172182973
N 0.000041163373 -0.000018505242 0.000024656053
H -0.486161057204 0.431583579298 0.796874202910
H 0.277328732592 0.730562064628 -0.668704587620
H 0.837431128296 -0.493711281831 0.335659987848
}
memory 8.333333333333334GB
set_num_threads(1)
psi4_io.set_default_path("/scratch/bdw2292/Psi4-74_Index_0-farH_in17")
set maxiter 500
set freeze_core True
set PROPERTIES_ORIGIN ["COM"]
set cubeprop_tasks ['esp']
E, wfn = properties('mp2/aug-cc-pVTZ',properties=['dipole'],return_wfn=True)
cubeprop(wfn)
fchk(wfn, "74_Index_0-esp.fchk")
oeprop(wfn,"GRID_ESP","WIBERG_LOWDIN_INDICES","MULLIKEN_CHARGES")
clean()
--------------------------------------------------------------------------

    Molecular point group: c1
  Charge       = 1
  Multiplicity = 1
  Basis Set: AUG-CC-PVTZ
    Blend: AUG-CC-PVTZ
  Basis Set: (AUG-CC-PVTZ AUX)
    Blend: AUG-CC-PVTZ-JKFIT

    Orbital Energies [Eh]
    ---------------------

    Doubly Occupied:

       1A    -15.940543     2A     -1.542515     3A     -0.996165
       4A     -0.996073     5A     -0.996017

  @DF-RHF Final Energy:   -56.56370146856883

   => Energetics <=

    Nuclear Repulsion Energy =             16.2974856203962908
    One-Electron Energy =                -104.7797471396872879
    Two-Electron Energy =                  31.9185600507221743
    Total Energy =                        -56.5637014685688229
  Basis Set: (AUG-CC-PVTZ AUX)
    Blend: AUG-CC-PVTZ-RI
    Molecular point group: c1

    Geometry (in Angstrom), charge = 1, multiplicity = 1:

       Center              X                  Y                   Z               Mass
    ------------   -----------------  -----------------  -----------------  -----------------
         H           -0.629170742012    -0.668177243782    -0.464172182973     1.007825032230
         N            0.000041163373    -0.000018505242     0.000024656053    14.003074004430
         H           -0.486161057204     0.431583579298     0.796874202910     1.007825032230
         H            0.277328732592     0.730562064628    -0.668704587620     1.007825032230
         H            0.837431128296    -0.493711281831     0.335659987848     1.007825032230

  Basis Set: AUG-CC-PVTZ
    Blend: AUG-CC-PVTZ
  Basis Set: (AUG-CC-PVTZ AUX)
    Blend: AUG-CC-PVTZ-JKFIT
	 Reference Energy          =     -56.5637014685688300 [Eh]
	 Singles Energy            =      -0.0000000000000000 [Eh]
	 Same-Spin Energy          =      -0.0483609074287947 [Eh]
	 Opposite-Spin Energy      =      -0.1839049728181029 [Eh]
	 Correlation Energy        =      -0.2322658802468976 [Eh]
	 Total Energy              =     -56.7959673488157293 [Eh]

	 ================> DF-SCS-MP2 Energies <==================
	-----------------------------------------------------------
	 SCS Same-Spin Scale       =       0.3333333333333333 [-]
	 SCS Opposite-Spin Scale   =       1.2000000000000000 [-]
	 SCS Same-Spin Energy      =      -0.0161203024762649 [Eh]
	 SCS Opposite-Spin Energy  =      -0.2206859673817235 [Eh]
	 SCS Correlation Energy    =      -0.2368062698579884 [Eh]
	 SCS Total Energy          =     -56.8005077384268162 [Eh]
	-----------------------------------------------------------

  Dipole Moment: [D]
     X:    -0.0008      Y:     0.0003      Z:    -0.0005     Total:     0.0010

  Basis Set: AUG-CC-PVTZ
    Blend: AUG-CC-PVTZ

  Mulliken Charges: (a.u.)
   Center  Symbol    Alpha    Beta     Spin     Total
       1     H     0.37416  0.37416  0.00000  0.25168
       2     N     3.50328  3.50328  0.00000 -0.00657
       3     H     0.37420  0.37420  0.00000  0.25161
       4     H     0.37416  0.37416  0.00000  0.25168
       5     H     0.37420  0.37420  0.00000  0.25160

   Total alpha =  5.00000, Total beta =  5.00000, Total charge =  1.00000

*** Psi4 exiting successfully. Buy a developer a beer!
