                               Psi4 1.3.2 release

  ==> Input File <==

--------------------------------------------------------------------------
molecule {
1 1
 H   -0.650500   -0.680300   -0.451600
 N    0.015600   -0.005300    0.003400
 H   -0.516800    0.445700    0.785200
 H    0.283300    0.754100   -0.664000
 H    0.868300   -0.514200    0.327000
}
set {
  geom_maxiter 400
  g_convergence GAU
  dynamic_level 1
}
memory 8.333333333333334GB
set_num_threads(1)
psi4_io.set_default_path("/scratch/bdw2292/Psi4-74_Index_0-farH_in17")
for _ in range(1):
  try:
    set opt_coordinates both
    optimize('mp2/6-31G*')
    break
  except OptimizationConvergenceError:
    break
  else:
    try:
      set opt_coordinates cartesian
      optimize('mp2/6-31G*')
      break
    except OptimizationConvergenceError:
      pass
clean()
--------------------------------------------------------------------------

    Molecular point group: c1
  Charge       = 1
  Multiplicity = 1
  Basis Set: 6-31G*
    Blend: 6-31G*
  Basis Set: (6-31G* AUX)
    Blend: CC-PVDZ-JKFIT
  @DF-RHF Final Energy:   -56.52621054702100
    Total Energy =                        -56.5262105470210017
  Basis Set: (6-31G* AUX)
    Blend: CC-PVDZ-RI
    Molecular point group: c1
  Basis Set: 6-31G*
    Blend: 6-31G*
  Basis Set: (6-31G* AUX)
    Blend: CC-PVDZ-JKFIT
  Basis Set: (6-31G* AUX)
    Blend: CC-PVDZ-JKFIT
	 Reference Energy          =     -56.5262105470210017 [Eh]
	 Singles Energy            =      -0.0000000000000000 [Eh]
	 Same-Spin Energy          =      -0.0393799948224829 [Eh]
	 Opposite-Spin Energy      =      -0.1360898296865126 [Eh]
	 Correlation Energy        =      -0.1754698245089955 [Eh]
	 Total Energy              =     -56.7016803715299957 [Eh]
	 SCS Total Energy          =     -56.7026450075856445 [Eh]
  @DF-RHF Final Energy:   -56.53001038529631
    Total Energy =                        -56.5300103852963076
  Charge       = 1
  Multiplicity = 1
  Basis Set: 6-31G*
    Blend: 6-31G*
  Basis Set: (6-31G* AUX)
    Blend: CC-PVDZ-JKFIT

    Orbital Energies [Eh]
    ---------------------

    Doubly Occupied:

       1A    -15.947915     2A     -1.546010     3A     -1.000437
       4A     -1.000344     5A     -1.000288

  @DF-RHF Final Energy:   -56.53000420377462

   => Energetics <=

    Nuclear Repulsion Energy =             16.2974856204007779
    One-Electron Energy =                -104.6649926844772409
    Two-Electron Energy =                  31.8375028603018428
    Total Energy =                        -56.5300042037746238

  Dipole Moment: [D]
     X:    -0.0009      Y:     0.0004      Z:    -0.0006     Total:     0.0012

  Basis Set: (6-31G* AUX)
    Blend: CC-PVDZ-RI
    Molecular point group: c1
  Basis Set: 6-31G*
    Blend: 6-31G*
  Basis Set: (6-31G* AUX)
    Blend: CC-PVDZ-JKFIT
  Basis Set: (6-31G* AUX)
    Blend: CC-PVDZ-JKFIT
	 Reference Energy          =     -56.5300042037746238 [Eh]
	 Singles Energy            =      -0.0000000000000000 [Eh]
	 Same-Spin Energy          =      -0.0390213206204997 [Eh]
	 Opposite-Spin Energy      =      -0.1344787748342264 [Eh]
	 Correlation Energy        =      -0.1735000954547261 [Eh]
	 Total Energy              =     -56.7035042992293512 [Eh]

	 ================> DF-SCS-MP2 Energies <==================
	-----------------------------------------------------------
	 SCS Same-Spin Scale       =       0.3333333333333333 [-]
	 SCS Opposite-Spin Scale   =       1.2000000000000000 [-]
	 SCS Same-Spin Energy      =      -0.0130071068734999 [Eh]
	 SCS Opposite-Spin Energy  =      -0.1613745298010716 [Eh]
	 SCS Correlation Energy    =      -0.1743816366745715 [Eh]
	 SCS Total Energy          =     -56.7043858404491985 [Eh]
	-----------------------------------------------------------

  -Total Gradient:
     Atom            X                  Y                   Z
    ------   -----------------  -----------------  -----------------
       1       -0.000014543018     0.000043034383    -0.000012072916
       2        0.000123344934    -0.000054800657     0.000127381568
       3        0.000016527834    -0.000024872826    -0.000084651615
       4       -0.000051289082    -0.000000421952    -0.000011223902
       5       -0.000074040668     0.000037061053    -0.000019433135

  **** Optimization is complete! (in 3 steps) ****
    Final optimized geometry and variables:
    Molecular point group: c1

    Geometry (in Angstrom), charge = 1, multiplicity = 1:

    H           -0.629170742012    -0.668177243782    -0.464172182973
    N            0.000041163373    -0.000018505242     0.000024656053
    H           -0.486161057204     0.431583579298     0.796874202910
    H            0.277328732592     0.730562064628    -0.668704587620
    H            0.837431128296    -0.493711281831     0.335659987848

*** Psi4 exiting successfully. Buy a developer a beer!
