                               Psi4 1.3.2 release

  ==> Input File <==

--------------------------------------------------------------------------
molecule {
1 1
H         -9.27360       -0.88310       -0.48290
N         -9.11910        0.13520       -0.32450
H         -9.77430        0.47290        0.38050
H         -9.26810        0.64150       -1.19730
H         -8.16370        0.28800       -0.00160
}
memory 100GB
set_num_threads(12)
psi4_io.set_default_path("/scratch/bdw2292/Psi4-farH_in17")
set maxiter 500
set freeze_core True
set PROPERTIES_ORIGIN ["COM"]
set cubeprop_tasks ['esp']
E, wfn = properties('hf/MINIX',properties=['dipole'],return_wfn=True)
cubeprop(wfn)
fchk(wfn, "farH_in17-esp_frag.fchk")
oeprop(wfn,"WIBERG_LOWDIN_INDICES","MULLIKEN_CHARGES")
clean()
--------------------------------------------------------------------------

    Molecular point group: c1

    Geometry (in Angstrom), charge = 1, multiplicity = 1:

       Center              X                  Y                   Z               Mass
    ------------   -----------------  -----------------  -----------------  -----------------
         H           -0.154315584251    -1.017098503456    -0.158215584251     1.007825032230
         N            0.000184415749     0.001201496544     0.000184415749    14.003074004430
         H           -0.655015584251     0.338901496544     0.705184415749     1.007825032230
         H           -0.148815584251     0.507501496544    -0.872615584251     1.007825032230
         H            0.955584415749     0.154001496544     0.323084415749     1.007825032230

  Charge       = 1
  Multiplicity = 1
  Basis Set: MINIX
    Blend: MINIX
  Basis Set: (MINIX AUX)
    Blend: DEF2-SVP-JKFIT

    Orbital Energies [Eh]
    ---------------------

    Doubly Occupied:

       1A    -15.898124     2A     -1.574661     3A     -1.030243
       4A     -1.030228     5A     -1.024155

  @DF-RHF Final Energy:   -56.15952089414888

   => Energetics <=

    Nuclear Repulsion Energy =             16.3457612890560142
    One-Electron Energy =                -103.8957504764158131
    Two-Electron Energy =                  31.3904682932109225
    Total Energy =                        -56.1595208941488764

  Dipole Moment: [D]
     X:    -0.0082      Y:    -0.0539      Z:    -0.0083     Total:     0.0552

  Basis Set: MINIX
    Blend: MINIX

  Mulliken Charges: (a.u.)
   Center  Symbol    Alpha    Beta     Spin     Total
       1     H     0.30032  0.30032  0.00000  0.39936
       2     N     3.79256  3.79256  0.00000 -0.58512
       3     H     0.30237  0.30237  0.00000  0.39525
       4     H     0.30237  0.30237  0.00000  0.39525
       5     H     0.30237  0.30237  0.00000  0.39526

   Total alpha =  5.00000, Total beta =  5.00000, Total charge =  1.00000

*** Psi4 exiting successfully. Buy a developer a beer!
