                               Psi4 1.3.2 release

  ==> Input File <==

--------------------------------------------------------------------------
molecule {
0 1
 Cl                 -0.1579851    -0.2358107     1.5789989
 Cl                 -0.5853312     1.5314563    -0.6626172
 Cl                 -0.0039900    -1.2608089    -1.1136819
 Cl                  2.0634563     0.5020987    -0.1198940
  C                  0.3323723     0.1352885    -0.0797709
--
0 1
  O                 -2.7162015    -1.2494186     2.2072096
  H                 -2.5802370    -2.1967818     2.2054429
  H                 -2.3064415    -0.8841676     1.4227644
}
memory 15GB
set_num_threads(4)
psi4_io.set_default_path("/scratch/bdw2292/Psi4-CCl4")
set maxiter 500
set freeze_core True
set PROPERTIES_ORIGIN ["COM"]
e_dim= energy('mp2/aug-cc-pV[TQ]Z',bsse_type='cp')

psi4.print_out('CP Energy = %10.6f' % (e_dim))
clean()
--------------------------------------------------------------------------

    Molecular point group: c1
  Charge       = 0
  Multiplicity = 1
  Basis Set: AUG-CC-PVTZ
    Blend: AUG-CC-PVTZ
  Basis Set: (AUG-CC-PVTZ AUX)
    Blend: AUG-CC-PVTZ-JKFIT
  @DF-RHF Final Energy:   -76.06046042183803
    Total Energy =                        -76.0604604218380160
  Basis Set: (AUG-CC-PVTZ AUX)
    Blend: AUG-CC-PVTZ-RI
	 Reference Energy          =     -76.0604604218380302 [Eh]
	 Singles Energy            =      -0.0000000000000000 [Eh]
	 Same-Spin Energy          =      -0.0650895806807465 [Eh]
	 Opposite-Spin Energy      =      -0.2029601745264462 [Eh]
	 Correlation Energy        =      -0.2680497552071926 [Eh]
	 Total Energy              =     -76.3285101770452172 [Eh]
	 SCS Total Energy          =     -76.3257091581633489 [Eh]
    Molecular point group: c1
  Basis Set: AUG-CC-PVQZ
    Blend: AUG-CC-PVQZ
  Basis Set: (AUG-CC-PVQZ AUX)
    Blend: AUG-CC-PVQZ-JKFIT
  @DF-RHF Final Energy:   -76.06584912662137
    Total Energy =                        -76.0658491266213730
  Basis Set: (AUG-CC-PVQZ AUX)
  @DF-RHF Final Energy:   -76.06052439400634
    Total Energy =                        -76.0605243940063360
  @DF-RHF Final Energy:   -76.06587359801173
    Total Energy =                        -76.0658735980117342
  @DF-RHF Final Energy: -1875.91647519670073
    Total Energy =                      -1875.9164751967007305
  @DF-RHF Final Energy: -1875.93370777875862
    Total Energy =                      -1875.9337077787586168
  @DF-RHF Final Energy: -1875.91637441335251
    Total Energy =                      -1875.9163744133525142
  @DF-RHF Final Energy: -1875.93368448159731
    Total Energy =                      -1875.9336844815973109
  Multiplicity = 1
  @DF-RHF Final Energy: -1951.96688755112132
    Total Energy =                      -1951.9668875511213173
	 Singles Energy            =      -0.0000000000000000 [Eh]
	 Same-Spin Energy          =      -0.3144732183499057 [Eh]
	 Opposite-Spin Energy      =      -0.9108895959505784 [Eh]
	 Correlation Energy        =      -1.2253628143004840 [Eh]
	 Total Energy              =   -1953.1922503654218417 [Eh]
	 SCS Total Energy          =   -1953.1647794723785410 [Eh]
    Molecular point group: c1

    Geometry (in Angstrom), charge = 0, multiplicity = 1:

       Center              X                  Y                   Z               Mass
    ------------   -----------------  -----------------  -----------------  -----------------
         CL          -0.167652731802    -0.219976992417     1.420589360178    34.968852682000
         CL          -0.594998831802     1.547290007583    -0.821026739822    34.968852682000
         CL          -0.013657631802    -1.244975192417    -1.272091439822    34.968852682000
         CL           2.053788668198     0.517932407583    -0.278303539822    34.968852682000
         C            0.322704668198     0.151122207583    -0.238180439822    12.000000000000
         O           -2.725869131802    -1.233584892417     2.048800060178    15.994914619570
         H           -2.589904631802    -2.180948092417     2.047033360178     1.007825032230
         H           -2.316109131802    -0.868333892417     1.264354860178     1.007825032230

  Charge       = 0
  Multiplicity = 1
  Basis Set: AUG-CC-PVQZ
    Blend: AUG-CC-PVQZ
  Basis Set: (AUG-CC-PVQZ AUX)
    Blend: AUG-CC-PVQZ-JKFIT

    Orbital Energies [Eh]
    ---------------------

    Doubly Occupied:

       1A   -104.883561     2A   -104.881785     3A   -104.880959
       4A   -104.880564     5A    -20.553912     6A    -11.501543
       7A    -10.609296     8A    -10.607459     9A    -10.607326
      10A    -10.606206    11A     -8.076262    12A     -8.074426
      13A     -8.074185    14A     -8.074175    15A     -8.074173
      16A     -8.073179    17A     -8.072329    18A     -8.072321
      19A     -8.072113    20A     -8.071998    21A     -8.071077
      22A     -8.071074    23A     -1.346447    24A     -1.287759
      25A     -1.135311    26A     -1.134223    27A     -1.132748
      28A     -0.840426    29A     -0.725202    30A     -0.664430
      31A     -0.664220    32A     -0.662997    33A     -0.577026
      34A     -0.539076    35A     -0.538200    36A     -0.512612
      37A     -0.494979    38A     -0.494270    39A     -0.487369
      40A     -0.466801    41A     -0.466428    42A     -0.460901

  @DF-RHF Final Energy: -1951.98950178498808

   => Energetics <=

    Nuclear Repulsion Energy =            546.9285173467449113
    One-Electron Energy =               -3786.7933454578087549
    Two-Electron Energy =                1287.8753263260755375
    Total Energy =                      -1951.9895017849880787

  Dipole Moment: [D]
     X:     1.1640      Y:    -0.8378      Z:    -1.2298     Total:     1.8893

  Basis Set: (AUG-CC-PVQZ AUX)
    Blend: AUG-CC-PVQZ-RI
	 Reference Energy          =   -1951.9895017849880787 [Eh]
	 Singles Energy            =      -0.0000000000000000 [Eh]
	 Same-Spin Energy          =      -0.3246409817399930 [Eh]
	 Opposite-Spin Energy      =      -0.9937520226147306 [Eh]
	 Correlation Energy        =      -1.3183930043547236 [Eh]
	 Total Energy              =   -1953.3078947893427539 [Eh]

	 ================> DF-SCS-MP2 Energies <==================
	-----------------------------------------------------------
	 SCS Same-Spin Scale       =       0.3333333333333333 [-]
	 SCS Opposite-Spin Scale   =       1.2000000000000000 [-]
	 SCS Same-Spin Energy      =      -0.1082136605799977 [Eh]
	 SCS Opposite-Spin Energy  =      -1.1925024271376767 [Eh]
	 SCS Correlation Energy    =      -1.3007160877176744 [Eh]
	 SCS Total Energy          =   -1953.2902178727058526 [Eh]
	-----------------------------------------------------------

*** Psi4 exiting successfully. Buy a developer a beer!
