                               Psi4 1.3.2 release

  ==> Input File <==

--------------------------------------------------------------------------
molecule {
0 1
 Cl                 -0.1579851    -0.2358107     1.5789989
 Cl                 -0.5853312     1.5314563    -0.6626172
 Cl                 -0.0039900    -1.2608089    -1.1136819
 Cl                  2.0634563     0.5020987    -0.1198940
  C                  0.3323723     0.1352885    -0.0797709
--
0 1
  O                 -3.9953097    -1.7562226     2.5213150
  H                 -3.8593452    -2.7035858     2.5195483
  H                 -3.5855497    -1.3909715     1.7368698
}
memory 15GB
set_num_threads(4)
psi4_io.set_default_path("/scratch/bdw2292/Psi4-CCl4")
set maxiter 500
set freeze_core True
set PROPERTIES_ORIGIN ["COM"]
e_dim= energy('mp2/aug-cc-pV[TQ]Z',bsse_type='cp')

psi4.print_out('CP Energy = %10.6f' % (e_dim))
clean()
--------------------------------------------------------------------------

    Molecular point group: c1
  Charge       = 0
  Multiplicity = 1
  Basis Set: AUG-CC-PVTZ
    Blend: AUG-CC-PVTZ
  Basis Set: (AUG-CC-PVTZ AUX)
    Blend: AUG-CC-PVTZ-JKFIT
  @DF-RHF Final Energy:   -76.06046041968273
    Total Energy =                        -76.0604604196827268
  Basis Set: (AUG-CC-PVTZ AUX)
    Blend: AUG-CC-PVTZ-RI
	 Reference Energy          =     -76.0604604196827268 [Eh]
	 Singles Energy            =      -0.0000000000000000 [Eh]
	 Same-Spin Energy          =      -0.0650895809650279 [Eh]
	 Opposite-Spin Energy      =      -0.2029601754491324 [Eh]
	 Correlation Energy        =      -0.2680497564141603 [Eh]
	 Total Energy              =     -76.3285101760968843 [Eh]
	 SCS Total Energy          =     -76.3257091572100279 [Eh]
    Molecular point group: c1
  Basis Set: AUG-CC-PVQZ
    Blend: AUG-CC-PVQZ
  Basis Set: (AUG-CC-PVQZ AUX)
    Blend: AUG-CC-PVQZ-JKFIT
  @DF-RHF Final Energy:   -76.06584912439691
    Total Energy =                        -76.0658491243969053
  Basis Set: (AUG-CC-PVQZ AUX)
  @DF-RHF Final Energy:   -76.06047412153023
    Total Energy =                        -76.0604741215302482
  @DF-RHF Final Energy:   -76.06585624847152
    Total Energy =                        -76.0658562484715191
  @DF-RHF Final Energy: -1875.91640615106803
    Total Energy =                      -1875.9164061510680312
  @DF-RHF Final Energy: -1875.93369207613591
    Total Energy =                      -1875.9336920761359124
  @DF-RHF Final Energy: -1875.91637441312423
    Total Energy =                      -1875.9163744131242311
  @DF-RHF Final Energy: -1875.93368448170077
    Total Energy =                      -1875.9336844817007659
  Multiplicity = 1
  @DF-RHF Final Energy: -1951.97723772883569
    Total Energy =                      -1951.9772377288356893
	 Singles Energy            =      -0.0000000000000000 [Eh]
	 Same-Spin Energy          =      -0.3117964489310979 [Eh]
	 Opposite-Spin Energy      =      -0.9076395168650531 [Eh]
	 Correlation Energy        =      -1.2194359657961509 [Eh]
	 Total Energy              =   -1953.1966736946317269 [Eh]
	 SCS Total Energy          =   -1953.1703372987174134 [Eh]
    Molecular point group: c1

    Geometry (in Angstrom), charge = 0, multiplicity = 1:

       Center              X                  Y                   Z               Mass
    ------------   -----------------  -----------------  -----------------  -----------------
         CL          -0.032047300464    -0.166247859679     1.387289285757    34.968852682000
         CL          -0.459393400464     1.601019140321    -0.854326814243    34.968852682000
         CL           0.121947799536    -1.191246059679    -1.305391514243    34.968852682000
         CL           2.189394099536     0.571661540321    -0.311603614243    34.968852682000
         C            0.458310099536     0.204851340321    -0.271480514243    12.000000000000
         O           -3.869371900464    -1.686659759679     2.329605385757    15.994914619570
         H           -3.733407400464    -2.634022959679     2.327838685757     1.007825032230
         H           -3.459611900464    -1.321408659679     1.545160185757     1.007825032230

  Charge       = 0
  Multiplicity = 1
  Basis Set: AUG-CC-PVQZ
    Blend: AUG-CC-PVQZ
  Basis Set: (AUG-CC-PVQZ AUX)
    Blend: AUG-CC-PVQZ-JKFIT

    Orbital Energies [Eh]
    ---------------------

    Doubly Occupied:

       1A   -104.880765     2A   -104.880209     3A   -104.879821
       4A   -104.879794     5A    -20.561564     6A    -11.500519
       7A    -10.606478     8A    -10.605883     9A    -10.605471
      10A    -10.605435    11A     -8.073448    12A     -8.072848
      13A     -8.072440    14A     -8.072408    15A     -8.071361
      16A     -8.071358    17A     -8.070749    18A     -8.070744
      19A     -8.070341    20A     -8.070339    21A     -8.070305
      22A     -8.070305    23A     -1.348777    24A     -1.285520
      25A     -1.131951    26A     -1.131474    27A     -1.131217
      28A     -0.837687    29A     -0.723777    30A     -0.662176
      31A     -0.661928    32A     -0.661664    33A     -0.576230
      34A     -0.536181    35A     -0.535971    36A     -0.508243
      37A     -0.493351    38A     -0.492552    39A     -0.492303
      40A     -0.464728    41A     -0.464454    42A     -0.464193

  @DF-RHF Final Energy: -1951.99990582974192

   => Energetics <=

    Nuclear Repulsion Energy =            521.9568235781281373
    One-Electron Energy =               -3736.9795341995941271
    Two-Electron Energy =                1263.0228047917241838
    Total Energy =                      -1951.9999058297419197

  Dipole Moment: [D]
     X:     1.0559      Y:    -0.9016      Z:    -1.3168     Total:     1.9136

  Basis Set: (AUG-CC-PVQZ AUX)
    Blend: AUG-CC-PVQZ-RI
	 Reference Energy          =   -1951.9999058297419197 [Eh]
	 Singles Energy            =      -0.0000000000000000 [Eh]
	 Same-Spin Energy          =      -0.3219151554337110 [Eh]
	 Opposite-Spin Energy      =      -0.9905462484858705 [Eh]
	 Correlation Energy        =      -1.3124614039195814 [Eh]
	 Total Energy              =   -1953.3123672336614618 [Eh]

	 ================> DF-SCS-MP2 Energies <==================
	-----------------------------------------------------------
	 SCS Same-Spin Scale       =       0.3333333333333333 [-]
	 SCS Opposite-Spin Scale   =       1.2000000000000000 [-]
	 SCS Same-Spin Energy      =      -0.1073050518112370 [Eh]
	 SCS Opposite-Spin Energy  =      -1.1886554981830446 [Eh]
	 SCS Correlation Energy    =      -1.2959605499942817 [Eh]
	 SCS Total Energy          =   -1953.2958663797362533 [Eh]
	-----------------------------------------------------------

*** Psi4 exiting successfully. Buy a developer a beer!
