                               Psi4 1.3.2 release

  ==> Input File <==

--------------------------------------------------------------------------
molecule {
0 1
 Cl                 -1.3216509    -1.2809349     0.3222521
 Cl                 -0.8136453     1.3984708    -0.6254683
 Cl                  0.5982673    -0.8387328    -1.7959308
 Cl                  1.1940644     0.0026420     0.9073311
  C                 -0.0850511    -0.1807108    -0.3019604
--
0 1
  O                 -1.1729101     0.6118746     4.4710827
  H                 -1.2324131    -0.3183728     4.6878043
  H                 -0.6212623     0.7048048     3.6943153
}
memory 15GB
set_num_threads(4)
psi4_io.set_default_path("/scratch/bdw2292/Psi4-CCl4")
set maxiter 500
set freeze_core True
set PROPERTIES_ORIGIN ["COM"]
e_dim= energy('mp2/aug-cc-pV[TQ]Z',bsse_type='cp')

psi4.print_out('CP Energy = %10.6f' % (e_dim))
clean()
--------------------------------------------------------------------------

    Molecular point group: c1
  Charge       = 0
  Multiplicity = 1
  Basis Set: AUG-CC-PVTZ
    Blend: AUG-CC-PVTZ
  Basis Set: (AUG-CC-PVTZ AUX)
    Blend: AUG-CC-PVTZ-JKFIT
  @DF-RHF Final Energy:   -76.06048004299325
    Total Energy =                        -76.0604800429932482
  Basis Set: (AUG-CC-PVTZ AUX)
    Blend: AUG-CC-PVTZ-RI
	 Reference Energy          =     -76.0604800429932482 [Eh]
	 Singles Energy            =      -0.0000000000000000 [Eh]
	 Same-Spin Energy          =      -0.0650883042318923 [Eh]
	 Opposite-Spin Energy      =      -0.2029563665480524 [Eh]
	 Correlation Energy        =      -0.2680446707799446 [Eh]
	 Total Energy              =     -76.3285247137731915 [Eh]
	 SCS Total Energy          =     -76.3257237842615410 [Eh]
    Molecular point group: c1
  Basis Set: AUG-CC-PVQZ
    Blend: AUG-CC-PVQZ
  Basis Set: (AUG-CC-PVQZ AUX)
    Blend: AUG-CC-PVQZ-JKFIT
  @DF-RHF Final Energy:   -76.06586944511032
    Total Energy =                        -76.0658694451103372
  Basis Set: (AUG-CC-PVQZ AUX)
  @DF-RHF Final Energy:   -76.06049704760660
    Total Energy =                        -76.0604970476066029
  @DF-RHF Final Energy:   -76.06587816794645
    Total Energy =                        -76.0658781679464653
  @DF-RHF Final Energy: -1875.91642227887337
    Total Energy =                      -1875.9164222788733696
  @DF-RHF Final Energy: -1875.93369883341711
    Total Energy =                      -1875.9336988334171110
  @DF-RHF Final Energy: -1875.91637473132278
    Total Energy =                      -1875.9163747313227759
  @DF-RHF Final Energy: -1875.93368661285876
    Total Energy =                      -1875.9336866128587644
  Multiplicity = 1
  @DF-RHF Final Energy: -1951.97720362965788
    Total Energy =                      -1951.9772036296578790
	 Singles Energy            =      -0.0000000000000000 [Eh]
	 Same-Spin Energy          =      -0.3119557689423426 [Eh]
	 Opposite-Spin Energy      =      -0.9078562999890413 [Eh]
	 Correlation Energy        =      -1.2198120689313838 [Eh]
	 Total Energy              =   -1953.1970156985892118 [Eh]
	 SCS Total Energy          =   -1953.1706164459587853 [Eh]
    Molecular point group: c1

    Geometry (in Angstrom), charge = 0, multiplicity = 1:

       Center              X                  Y                   Z               Mass
    ------------   -----------------  -----------------  -----------------  -----------------
         CL          -1.123621218211    -1.180165944983     0.118219150933    34.968852682000
         CL          -0.615615618211     1.499239755017    -0.829501249067    34.968852682000
         CL           0.796296981789    -0.737963844983    -1.999963749067    34.968852682000
         CL           1.392094081789     0.103410955017     0.703298150933    34.968852682000
         C            0.112978581789    -0.079941844983    -0.505993349067    12.000000000000
         O           -0.974880418211     0.712643555017     4.267049750933    15.994914619570
         H           -1.034383418211    -0.217603844983     4.483771350933     1.007825032230
         H           -0.423232618211     0.805573755017     3.490282350933     1.007825032230

  Charge       = 0
  Multiplicity = 1
  Basis Set: AUG-CC-PVQZ
    Blend: AUG-CC-PVQZ
  Basis Set: (AUG-CC-PVQZ AUX)
    Blend: AUG-CC-PVQZ-JKFIT

    Orbital Energies [Eh]
    ---------------------

    Doubly Occupied:

       1A   -104.884425     2A   -104.882094     3A   -104.881911
       4A   -104.881200     5A    -20.559812     6A    -11.502817
       7A    -10.610171     8A    -10.607795     9A    -10.607514
      10A    -10.606857    11A     -8.077139    12A     -8.075071
      13A     -8.075060    14A     -8.074765    15A     -8.074486
      16A     -8.073827    17A     -8.072667    18A     -8.072663
      19A     -8.072380    20A     -8.072378    21A     -8.071717
      22A     -8.071715    23A     -1.347175    24A     -1.287897
      25A     -1.135140    26A     -1.133538    27A     -1.132888
      28A     -0.840000    29A     -0.722054    30A     -0.664766
      31A     -0.664279    32A     -0.663772    33A     -0.574912
      34A     -0.538516    35A     -0.538180    36A     -0.506456
      37A     -0.495747    38A     -0.494925    39A     -0.494383
      40A     -0.467514    41A     -0.466726    42A     -0.465865

  @DF-RHF Final Energy: -1951.99986773084652

   => Energetics <=

    Nuclear Repulsion Energy =            527.8885186524470328
    One-Electron Energy =               -3748.6903781396881641
    Two-Electron Energy =                1268.8019917563945000
    Total Energy =                      -1951.9998677308465176

  Dipole Moment: [D]
     X:     0.8108      Y:    -1.4273      Z:    -1.2095     Total:     2.0390

  Basis Set: (AUG-CC-PVQZ AUX)
    Blend: AUG-CC-PVQZ-RI
	 Reference Energy          =   -1951.9998677308465176 [Eh]
	 Singles Energy            =      -0.0000000000000000 [Eh]
	 Same-Spin Energy          =      -0.3220702915808775 [Eh]
	 Opposite-Spin Energy      =      -0.9907275182932613 [Eh]
	 Correlation Energy        =      -1.3127978098741389 [Eh]
	 Total Energy              =   -1953.3126655407206727 [Eh]

	 ================> DF-SCS-MP2 Energies <==================
	-----------------------------------------------------------
	 SCS Same-Spin Scale       =       0.3333333333333333 [-]
	 SCS Opposite-Spin Scale   =       1.2000000000000000 [-]
	 SCS Same-Spin Energy      =      -0.1073567638602925 [Eh]
	 SCS Opposite-Spin Energy  =      -1.1888730219519135 [Eh]
	 SCS Correlation Energy    =      -1.2962297858122060 [Eh]
	 SCS Total Energy          =   -1953.2960975166586195 [Eh]
	-----------------------------------------------------------

*** Psi4 exiting successfully. Buy a developer a beer!
