                               Psi4 1.3.2 release

  ==> Input File <==

--------------------------------------------------------------------------
molecule {
0 1
 Cl                 -1.5149002    -0.4329419     0.6007099
 Cl                 -1.6714920     1.8711931    -1.1316761
 Cl                 -2.5967290    -0.7042083    -2.0629299
 Cl                  0.2287502    -0.2297564    -1.6989855
  C                 -1.3875751     0.1256205    -1.0727028
--
0 1
 Cl                  0.8717221    -1.6906914     3.6280011
 Cl                  2.4471669    -0.1778208     1.7331652
 Cl                  1.6584900    -2.8924282     1.1169620
 Cl                  3.6344172    -2.3890236     3.1625380
  C                  2.1511481    -1.7868373     2.4083396
}
memory 15GB
set_num_threads(4)
psi4_io.set_default_path("/scratch/bdw2292/Psi4-CCl4")
set maxiter 500
set freeze_core True
set PROPERTIES_ORIGIN ["COM"]
e_dim= energy('mp2/aug-cc-pV[TQ]Z',bsse_type='cp')

psi4.print_out('CP Energy = %10.6f' % (e_dim))
clean()
--------------------------------------------------------------------------

    Molecular point group: c1
  Charge       = 0
  Multiplicity = 1
  Basis Set: AUG-CC-PVTZ
    Blend: AUG-CC-PVTZ
  Basis Set: (AUG-CC-PVTZ AUX)
    Blend: AUG-CC-PVTZ-JKFIT
  @DF-RHF Final Energy: -1875.91637004169002
    Total Energy =                      -1875.9163700416900156
  Basis Set: (AUG-CC-PVTZ AUX)
    Blend: AUG-CC-PVTZ-RI
	 Reference Energy          =   -1875.9163700416900156 [Eh]
	 Singles Energy            =      -0.0000000000000000 [Eh]
	 Same-Spin Energy          =      -0.2463651756948791 [Eh]
	 Opposite-Spin Energy      =      -0.7042355718142608 [Eh]
	 Correlation Energy        =      -0.9506007475091399 [Eh]
	 Total Energy              =   -1876.8669707891990583 [Eh]
	 SCS Total Energy          =   -1876.8435744530986540 [Eh]
    Molecular point group: c1
  Basis Set: AUG-CC-PVQZ
    Blend: AUG-CC-PVQZ
  Basis Set: (AUG-CC-PVQZ AUX)
    Blend: AUG-CC-PVQZ-JKFIT
  @DF-RHF Final Energy: -1875.93367561764467
    Total Energy =                      -1875.9336756176446670
  Basis Set: (AUG-CC-PVQZ AUX)
  @DF-RHF Final Energy: -1875.91645348854308
    Total Energy =                      -1875.9164534885430839
  @DF-RHF Final Energy: -1875.93369939425202
    Total Energy =                      -1875.9336993942520166
  @DF-RHF Final Energy: -1875.91646191195036
    Total Energy =                      -1875.9164619119503641
  @DF-RHF Final Energy: -1875.93371874992772
    Total Energy =                      -1875.9337187499277206
  @DF-RHF Final Energy: -1875.91638573987439
    Total Energy =                      -1875.9163857398743858
  @DF-RHF Final Energy: -1875.93369820867588
    Total Energy =                      -1875.9336982086758780
  Multiplicity = 1
  @DF-RHF Final Energy: -3751.83144621685233
    Total Energy =                      -3751.8314462168523278
	 Singles Energy            =      -0.0000000000000000 [Eh]
	 Same-Spin Energy          =      -0.4954503060948434 [Eh]
	 Opposite-Spin Energy      =      -1.4117022171245419 [Eh]
	 Correlation Energy        =      -1.9071525232193853 [Eh]
	 Total Energy              =   -3753.7385987400716658 [Eh]
	 SCS Total Energy          =   -3753.6906389794335155 [Eh]
    Molecular point group: c1

    Geometry (in Angstrom), charge = 0, multiplicity = 1:

       Center              X                  Y                   Z               Mass
    ------------   -----------------  -----------------  -----------------  -----------------
         CL          -1.897047404899     0.397759784559    -0.067711459245    34.968852682000
         CL          -2.053639204899     2.701894784559    -1.800097459245    34.968852682000
         CL          -2.978876204899     0.126493384559    -2.731351259245    34.968852682000
         CL          -0.153397004899     0.600945284559    -2.367406859245    34.968852682000
         C           -1.769722304899     0.956322184559    -1.741124159245    12.000000000000
         CL           0.489574895101    -0.859989715441     2.959579740755    34.968852682000
         CL           2.065019695101     0.652880884559     1.064743840755    34.968852682000
         CL           1.276342795101    -2.061726515441     0.448540640755    34.968852682000
         CL           3.252269995101    -1.558321915441     2.494116640755    34.968852682000
         C            1.769000895101    -0.956135615441     1.739918240755    12.000000000000

  Charge       = 0
  Multiplicity = 1
  Basis Set: AUG-CC-PVQZ
    Blend: AUG-CC-PVQZ
  Basis Set: (AUG-CC-PVQZ AUX)
    Blend: AUG-CC-PVQZ-JKFIT

    Orbital Energies [Eh]
    ---------------------

    Doubly Occupied:

       1A   -104.876433     2A   -104.875517     3A   -104.875304
       4A   -104.875239     5A   -104.875159     6A   -104.875121
       7A   -104.874790     8A   -104.874474     9A    -11.496512
      10A    -11.495698    11A    -10.602132    12A    -10.601219
      13A    -10.601000    14A    -10.600936    15A    -10.600861
      16A    -10.600822    17A    -10.600516    18A    -10.600226
      19A     -8.069104    20A     -8.068190    21A     -8.067972
      22A     -8.067908    23A     -8.067831    24A     -8.067793
      25A     -8.067487    26A     -8.067195    27A     -8.067018
      28A     -8.067017    29A     -8.066096    30A     -8.066095
      31A     -8.065879    32A     -8.065879    33A     -8.065815
      34A     -8.065815    35A     -8.065734    36A     -8.065730
      37A     -8.065695    38A     -8.065692    39A     -8.065391
      40A     -8.065389    41A     -8.065091    42A     -8.065091
      43A     -1.281064    44A     -1.280451    45A     -1.127735
      46A     -1.127189    47A     -1.126889    48A     -1.126833
      49A     -1.126509    50A     -1.125972    51A     -0.834087
      52A     -0.832225    53A     -0.658670    54A     -0.658052
      55A     -0.657892    56A     -0.656790    57A     -0.656664
      58A     -0.656016    59A     -0.534603    60A     -0.532275
      61A     -0.530794    62A     -0.528993    63A     -0.495201
      64A     -0.488653    65A     -0.488600    66A     -0.488061
      67A     -0.487964    68A     -0.479394    69A     -0.461521
      70A     -0.460869    71A     -0.460421    72A     -0.459061
      73A     -0.458812    74A     -0.457561

  @DF-RHF Final Energy: -3751.86593665330838

   => Energetics <=

    Nuclear Repulsion Energy =           1414.2484660540264940
    One-Electron Energy =               -8005.9394292034212413
    Two-Electron Energy =                2839.8250264960861386
    Total Energy =                      -3751.8659366533083812

  Dipole Moment: [D]
     X:     0.0252      Y:    -0.0056      Z:    -0.0051     Total:     0.0264

  Basis Set: (AUG-CC-PVQZ AUX)
    Blend: AUG-CC-PVQZ-RI
	 Reference Energy          =   -3751.8659366533083812 [Eh]
	 Singles Energy            =      -0.0000000000000000 [Eh]
	 Same-Spin Energy          =      -0.5115813252851578 [Eh]
	 Opposite-Spin Energy      =      -1.5464027984083455 [Eh]
	 Correlation Energy        =      -2.0579841236935033 [Eh]
	 Total Energy              =   -3753.9239207770019675 [Eh]

	 ================> DF-SCS-MP2 Energies <==================
	-----------------------------------------------------------
	 SCS Same-Spin Scale       =       0.3333333333333333 [-]
	 SCS Opposite-Spin Scale   =       1.2000000000000000 [-]
	 SCS Same-Spin Energy      =      -0.1705271084283859 [Eh]
	 SCS Opposite-Spin Energy  =      -1.8556833580900145 [Eh]
	 SCS Correlation Energy    =      -2.0262104665184006 [Eh]
	 SCS Total Energy          =   -3753.8921471198268591 [Eh]
	-----------------------------------------------------------

*** Psi4 exiting successfully. Buy a developer a beer!
