                               Psi4 1.3.2 release

  ==> Input File <==

--------------------------------------------------------------------------
molecule {
0 1
 Cl                 -0.9834540    -0.5863909     1.9222969
 Cl                 -1.0203298     1.3185487    -0.2497215
 Cl                 -0.3649296    -1.4476266    -0.7655753
 Cl                  1.4944115     0.2308771     0.6813521
  C                 -0.2163540    -0.1195090     0.3969557
--
0 1
  O                  1.2446009     0.6539555    -2.4349853
  H                  0.5299331     0.0207015    -2.3638725
  H                  1.1696551     1.1016125    -3.2775772
}
memory 15GB
set_num_threads(4)
psi4_io.set_default_path("/scratch/bdw2292/Psi4-CCl4")
set maxiter 500
set freeze_core True
set PROPERTIES_ORIGIN ["COM"]
e_dim= energy('mp2/aug-cc-pV[TQ]Z',bsse_type='cp')

psi4.print_out('CP Energy = %10.6f' % (e_dim))
clean()
--------------------------------------------------------------------------

    Molecular point group: c1
  Charge       = 0
  Multiplicity = 1
  Basis Set: AUG-CC-PVTZ
    Blend: AUG-CC-PVTZ
  Basis Set: (AUG-CC-PVTZ AUX)
    Blend: AUG-CC-PVTZ-JKFIT
  @DF-RHF Final Energy:   -76.06044970213325
    Total Energy =                        -76.0604497021332548
  Basis Set: (AUG-CC-PVTZ AUX)
    Blend: AUG-CC-PVTZ-RI
	 Reference Energy          =     -76.0604497021332548 [Eh]
	 Singles Energy            =      -0.0000000000000000 [Eh]
	 Same-Spin Energy          =      -0.0650895907529464 [Eh]
	 Opposite-Spin Energy      =      -0.2029598410823469 [Eh]
	 Correlation Energy        =      -0.2680494318352933 [Eh]
	 Total Energy              =     -76.3284991339685490 [Eh]
	 SCS Total Energy          =     -76.3256980416830544 [Eh]
    Molecular point group: c1
  Basis Set: AUG-CC-PVQZ
    Blend: AUG-CC-PVQZ
  Basis Set: (AUG-CC-PVQZ AUX)
    Blend: AUG-CC-PVQZ-JKFIT
  @DF-RHF Final Energy:   -76.06583816168239
    Total Energy =                        -76.0658381616823931
  Basis Set: (AUG-CC-PVQZ AUX)
  @DF-RHF Final Energy:   -76.06051183931166
    Total Energy =                        -76.0605118393116584
  @DF-RHF Final Energy:   -76.06586952504546
    Total Energy =                        -76.0658695250454571
  @DF-RHF Final Energy: -1875.91651229199806
    Total Energy =                      -1875.9165122919980604
  @DF-RHF Final Energy: -1875.93370173980588
    Total Energy =                      -1875.9337017398058833
  @DF-RHF Final Energy: -1875.91636516034669
    Total Energy =                      -1875.9163651603466860
  @DF-RHF Final Energy: -1875.93366824651162
    Total Energy =                      -1875.9336682465116155
  Multiplicity = 1
  @DF-RHF Final Energy: -1951.96919427175544
    Total Energy =                      -1951.9691942717554412
	 Singles Energy            =      -0.0000000000000000 [Eh]
	 Same-Spin Energy          =      -0.3151558700750587 [Eh]
	 Opposite-Spin Energy      =      -0.9117317748319486 [Eh]
	 Correlation Energy        =      -1.2268876449070074 [Eh]
	 Total Energy              =   -1953.1960819166624788 [Eh]
	 SCS Total Energy          =   -1953.1683243582453997 [Eh]
    Molecular point group: c1

    Geometry (in Angstrom), charge = 0, multiplicity = 1:

       Center              X                  Y                   Z               Mass
    ------------   -----------------  -----------------  -----------------  -----------------
         CL          -0.915470697380    -0.546430772503     1.830038864857    34.968852682000
         CL          -0.952346497380     1.358508827497    -0.341979535143    34.968852682000
         CL          -0.296946297380    -1.407666472503    -0.857833335143    34.968852682000
         CL           1.562394802620     0.270837227497     0.589094064857    34.968852682000
         C           -0.148370697380    -0.079548872503     0.304697664857    12.000000000000
         O            1.312584202620     0.693915627497    -2.527243335143    15.994914619570
         H            0.597916402620     0.060661627497    -2.456130535143     1.007825032230
         H            1.237638402620     1.141572627497    -3.369835235143     1.007825032230

  Charge       = 0
  Multiplicity = 1
  Basis Set: AUG-CC-PVQZ
    Blend: AUG-CC-PVQZ
  Basis Set: (AUG-CC-PVQZ AUX)
    Blend: AUG-CC-PVQZ-JKFIT

    Orbital Energies [Eh]
    ---------------------

    Doubly Occupied:

       1A   -104.881017     2A   -104.874650     3A   -104.872035
       4A   -104.867662     5A    -20.554903     6A    -11.495272
       7A    -10.607165     8A    -10.600319     9A    -10.597847
      10A    -10.593310    11A     -8.074101    12A     -8.072129
      13A     -8.072060    14A     -8.067288    15A     -8.065197
      16A     -8.065191    17A     -8.064813    18A     -8.062723
      19A     -8.062699    20A     -8.060279    21A     -8.058139
      22A     -8.058120    23A     -1.346578    24A     -1.279639
      25A     -1.131701    26A     -1.125048    27A     -1.121374
      28A     -0.832516    29A     -0.727112    30A     -0.658674
      31A     -0.654981    32A     -0.653241    33A     -0.577588
      34A     -0.533425    35A     -0.528698    36A     -0.507010
      37A     -0.488040    38A     -0.486575    39A     -0.481936
      40A     -0.460097    41A     -0.457880    42A     -0.454381

  @DF-RHF Final Energy: -1951.99176676758657

   => Energetics <=

    Nuclear Repulsion Energy =            560.7949784747094100
    One-Electron Energy =               -3815.1066603584345103
    Two-Electron Energy =                1302.3199151161386453
    Total Energy =                      -1951.9917667675865687

  Dipole Moment: [D]
     X:    -1.0599      Y:    -0.1277      Z:    -1.1746     Total:     1.5873

  Basis Set: (AUG-CC-PVQZ AUX)
    Blend: AUG-CC-PVQZ-RI
	 Reference Energy          =   -1951.9917667675865687 [Eh]
	 Singles Energy            =      -0.0000000000000000 [Eh]
	 Same-Spin Energy          =      -0.3253196061073041 [Eh]
	 Opposite-Spin Energy      =      -0.9945072820368297 [Eh]
	 Correlation Energy        =      -1.3198268881441337 [Eh]
	 Total Energy              =   -1953.3115936557308032 [Eh]

	 ================> DF-SCS-MP2 Energies <==================
	-----------------------------------------------------------
	 SCS Same-Spin Scale       =       0.3333333333333333 [-]
	 SCS Opposite-Spin Scale   =       1.2000000000000000 [-]
	 SCS Same-Spin Energy      =      -0.1084398687024347 [Eh]
	 SCS Opposite-Spin Energy  =      -1.1934087384441956 [Eh]
	 SCS Correlation Energy    =      -1.3018486071466304 [Eh]
	 SCS Total Energy          =   -1953.2936153747332355 [Eh]
	-----------------------------------------------------------

*** Psi4 exiting successfully. Buy a developer a beer!
