                               Psi4 1.3.2 release

  ==> Input File <==

--------------------------------------------------------------------------
molecule {
0 1
 Cl                 -1.1871076    -0.8335049     1.5502738
 Cl                 -0.8653436     1.3740538    -0.2923766
 Cl                 -0.1207216    -1.2934769    -1.0993016
 Cl                  1.4598061     0.1120695     0.8621506
  C                 -0.1806370    -0.1611091     0.2591364
--
0 1
  O                  2.4068900     2.5079270    -2.2977534
  H                  1.9872023     1.6474719    -2.3006620
  H                  2.5919202     2.7575781    -3.2029441
}
memory 15GB
set_num_threads(4)
psi4_io.set_default_path("/scratch/bdw2292/Psi4-CCl4")
set maxiter 500
set freeze_core True
set PROPERTIES_ORIGIN ["COM"]
e_dim= energy('mp2/aug-cc-pV[TQ]Z',bsse_type='cp')

psi4.print_out('CP Energy = %10.6f' % (e_dim))
clean()
--------------------------------------------------------------------------

    Molecular point group: c1
  Charge       = 0
  Multiplicity = 1
  Basis Set: AUG-CC-PVTZ
    Blend: AUG-CC-PVTZ
  Basis Set: (AUG-CC-PVTZ AUX)
    Blend: AUG-CC-PVTZ-JKFIT
  @DF-RHF Final Energy:   -76.06045551821370
    Total Energy =                        -76.0604555182137005
  Basis Set: (AUG-CC-PVTZ AUX)
    Blend: AUG-CC-PVTZ-RI
	 Reference Energy          =     -76.0604555182137005 [Eh]
	 Singles Energy            =      -0.0000000000000000 [Eh]
	 Same-Spin Energy          =      -0.0650879868517275 [Eh]
	 Opposite-Spin Energy      =      -0.2029544248369153 [Eh]
	 Correlation Energy        =      -0.2680424116886428 [Eh]
	 Total Energy              =     -76.3284979299023405 [Eh]
	 SCS Total Energy          =     -76.3256968236352407 [Eh]
    Molecular point group: c1
  Basis Set: AUG-CC-PVQZ
    Blend: AUG-CC-PVQZ
  Basis Set: (AUG-CC-PVQZ AUX)
    Blend: AUG-CC-PVQZ-JKFIT
  @DF-RHF Final Energy:   -76.06584441068502
    Total Energy =                        -76.0658444106850169
  Basis Set: (AUG-CC-PVQZ AUX)
  @DF-RHF Final Energy:   -76.06047350556169
    Total Energy =                        -76.0604735055617027
  @DF-RHF Final Energy:   -76.06585177248273
    Total Energy =                        -76.0658517724827448
  @DF-RHF Final Energy: -1875.91643615002408
    Total Energy =                      -1875.9164361500240830
  @DF-RHF Final Energy: -1875.93370000239179
    Total Energy =                      -1875.9337000023917881
  @DF-RHF Final Energy: -1875.91637206783435
    Total Energy =                      -1875.9163720678343452
  @DF-RHF Final Energy: -1875.93368418870637
    Total Energy =                      -1875.9336841887063656
  Multiplicity = 1
  @DF-RHF Final Energy: -1951.97673447445527
    Total Energy =                      -1951.9767344744552702
	 Singles Energy            =      -0.0000000000000000 [Eh]
	 Same-Spin Energy          =      -0.3122281479860621 [Eh]
	 Opposite-Spin Energy      =      -0.9081978461494601 [Eh]
	 Correlation Energy        =      -1.2204259941355222 [Eh]
	 Total Energy              =   -1953.1971604685907096 [Eh]
	 SCS Total Energy          =   -1953.1706479391632456 [Eh]
    Molecular point group: c1

    Geometry (in Angstrom), charge = 0, multiplicity = 1:

       Center              X                  Y                   Z               Mass
    ------------   -----------------  -----------------  -----------------  -----------------
         CL          -1.281286623610    -0.952468235083     1.570846899945    34.968852682000
         CL          -0.959522623610     1.255090464917    -0.271803500055    34.968852682000
         CL          -0.214900623610    -1.412440235083    -1.078728500055    34.968852682000
         CL           1.365627076390    -0.006893835083     0.882723699945    34.968852682000
         C           -0.274816023610    -0.280072435083     0.279709499945    12.000000000000
         O            2.312710976390     2.388963664917    -2.277180300055    15.994914619570
         H            1.893023276390     1.528508564917    -2.280088900055     1.007825032230
         H            2.497741176390     2.638614764917    -3.182371000055     1.007825032230

  Charge       = 0
  Multiplicity = 1
  Basis Set: AUG-CC-PVQZ
    Blend: AUG-CC-PVQZ
  Basis Set: (AUG-CC-PVQZ AUX)
    Blend: AUG-CC-PVQZ-JKFIT

    Orbital Energies [Eh]
    ---------------------

    Doubly Occupied:

       1A   -104.879281     2A   -104.877516     3A   -104.876511
       4A   -104.876498     5A    -20.560548     6A    -11.497862
       7A    -10.605039     8A    -10.603142     9A    -10.602184
      10A    -10.602174    11A     -8.072007    12A     -8.070116
      13A     -8.069935    14A     -8.069926    15A     -8.069147
      16A     -8.069144    17A     -8.068016    18A     -8.068015
      19A     -8.067040    20A     -8.067038    21A     -8.067032
      22A     -8.067031    23A     -1.347826    24A     -1.283061
      25A     -1.130178    26A     -1.128695    27A     -1.128003
      28A     -0.835038    29A     -0.723135    30A     -0.660031
      31A     -0.659418    32A     -0.658685    33A     -0.575151
      34A     -0.533751    35A     -0.533243    36A     -0.507213
      37A     -0.490842    38A     -0.490054    39A     -0.489405
      40A     -0.462569    41A     -0.461820    42A     -0.460821

  @DF-RHF Final Energy: -1951.99938902105714

   => Energetics <=

    Nuclear Repulsion Energy =            534.0324149408493213
    One-Electron Energy =               -3761.3353281661511573
    Two-Electron Energy =                1275.3035242042446953
    Total Energy =                      -1951.9993890210571408

  Dipole Moment: [D]
     X:    -0.4190      Y:    -0.9365      Z:    -1.3671     Total:     1.7093

  Basis Set: (AUG-CC-PVQZ AUX)
    Blend: AUG-CC-PVQZ-RI
	 Reference Energy          =   -1951.9993890210571408 [Eh]
	 Singles Energy            =      -0.0000000000000000 [Eh]
	 Same-Spin Energy          =      -0.3223469362562421 [Eh]
	 Opposite-Spin Energy      =      -0.9910639791209293 [Eh]
	 Correlation Energy        =      -1.3134109153771714 [Eh]
	 Total Energy              =   -1953.3127999364342031 [Eh]

	 ================> DF-SCS-MP2 Energies <==================
	-----------------------------------------------------------
	 SCS Same-Spin Scale       =       0.3333333333333333 [-]
	 SCS Opposite-Spin Scale   =       1.2000000000000000 [-]
	 SCS Same-Spin Energy      =      -0.1074489787520807 [Eh]
	 SCS Opposite-Spin Energy  =      -1.1892767749451150 [Eh]
	 SCS Correlation Energy    =      -1.2967257536971957 [Eh]
	 SCS Total Energy          =   -1953.2961147747544146 [Eh]
	-----------------------------------------------------------

*** Psi4 exiting successfully. Buy a developer a beer!
