                               Psi4 1.3.2 release

  ==> Input File <==

--------------------------------------------------------------------------
molecule {
0 1
 Cl                 -0.9834540    -0.5863909     1.9222969
 Cl                 -1.0203298     1.3185487    -0.2497215
 Cl                 -0.3649296    -1.4476266    -0.7655753
 Cl                  1.4944115     0.2308771     0.6813521
  C                 -0.2163540    -0.1195090     0.3969557
--
0 1
  O                  1.1586624     0.6084576    -2.2684005
  H                  0.4439946    -0.0247964    -2.1972878
  H                  1.0837166     1.0561146    -3.1109925
}
memory 15GB
set_num_threads(4)
psi4_io.set_default_path("/scratch/bdw2292/Psi4-CCl4")
set maxiter 500
set freeze_core True
set PROPERTIES_ORIGIN ["COM"]
e_dim= energy('mp2/aug-cc-pV[TQ]Z',bsse_type='cp')

psi4.print_out('CP Energy = %10.6f' % (e_dim))
clean()
--------------------------------------------------------------------------

    Molecular point group: c1
  Charge       = 0
  Multiplicity = 1
  Basis Set: AUG-CC-PVTZ
    Blend: AUG-CC-PVTZ
  Basis Set: (AUG-CC-PVTZ AUX)
    Blend: AUG-CC-PVTZ-JKFIT
  @DF-RHF Final Energy:   -76.06044970022002
    Total Energy =                        -76.0604497002200048
  Basis Set: (AUG-CC-PVTZ AUX)
    Blend: AUG-CC-PVTZ-RI
	 Reference Energy          =     -76.0604497002200191 [Eh]
	 Singles Energy            =      -0.0000000000000000 [Eh]
	 Same-Spin Energy          =      -0.0650895915580323 [Eh]
	 Opposite-Spin Energy      =      -0.2029598438320151 [Eh]
	 Correlation Energy        =      -0.2680494353900474 [Eh]
	 Total Energy              =     -76.3284991356100733 [Eh]
	 SCS Total Energy          =     -76.3256980433377805 [Eh]
    Molecular point group: c1
  Basis Set: AUG-CC-PVQZ
    Blend: AUG-CC-PVQZ
  Basis Set: (AUG-CC-PVQZ AUX)
    Blend: AUG-CC-PVQZ-JKFIT
  @DF-RHF Final Energy:   -76.06583815953994
    Total Energy =                        -76.0658381595399362
  Basis Set: (AUG-CC-PVQZ AUX)
  @DF-RHF Final Energy:   -76.06053277386499
    Total Energy =                        -76.0605327738649919
  @DF-RHF Final Energy:   -76.06587428318167
    Total Energy =                        -76.0658742831816710
  @DF-RHF Final Energy: -1875.91653548995714
    Total Energy =                      -1875.9165354899571412
  @DF-RHF Final Energy: -1875.93370660132564
    Total Energy =                      -1875.9337066013256390
  @DF-RHF Final Energy: -1875.91636516028484
    Total Energy =                      -1875.9163651602848404
  @DF-RHF Final Energy: -1875.93366824622603
    Total Energy =                      -1875.9336682462260342
  Multiplicity = 1
  @DF-RHF Final Energy: -1951.96267182749921
    Total Energy =                      -1951.9626718274992072
	 Singles Energy            =      -0.0000000000000000 [Eh]
	 Same-Spin Energy          =      -0.3164132366204390 [Eh]
	 Opposite-Spin Energy      =      -0.9131578280523771 [Eh]
	 Correlation Energy        =      -1.2295710646728162 [Eh]
	 Total Energy              =   -1953.1922428921720893 [Eh]
	 SCS Total Energy          =   -1953.1639323000356399 [Eh]
    Molecular point group: c1

    Geometry (in Angstrom), charge = 0, multiplicity = 1:

       Center              X                  Y                   Z               Mass
    ------------   -----------------  -----------------  -----------------  -----------------
         CL          -0.906359875199    -0.541607285049     1.812378277473    34.968852682000
         CL          -0.943235675199     1.363332314951    -0.359640122527    34.968852682000
         CL          -0.287835475199    -1.402842985049    -0.875493922527    34.968852682000
         CL           1.571505624801     0.275660714951     0.571433477473    34.968852682000
         C           -0.139259875199    -0.074725385049     0.287037077473    12.000000000000
         O            1.235756524801     0.653241214951    -2.378319122527    15.994914619570
         H            0.521088724801     0.019987214951    -2.307206422527     1.007825032230
         H            1.160810724801     1.100898214951    -3.220911122527     1.007825032230

  Charge       = 0
  Multiplicity = 1
  Basis Set: AUG-CC-PVQZ
    Blend: AUG-CC-PVQZ
  Basis Set: (AUG-CC-PVQZ AUX)
    Blend: AUG-CC-PVQZ-JKFIT

    Orbital Energies [Eh]
    ---------------------

    Doubly Occupied:

       1A   -104.881654     2A   -104.874581     3A   -104.870879
       4A   -104.865892     5A    -20.551844     6A    -11.494976
       7A    -10.608084     8A    -10.600236     9A    -10.596779
      10A    -10.591602    11A     -8.074990    12A     -8.073068
      13A     -8.072958    14A     -8.067205    15A     -8.065113
      16A     -8.065105    17A     -8.063739    18A     -8.061653
      19A     -8.061623    20A     -8.058566    21A     -8.056423
      22A     -8.056403    23A     -1.346937    24A     -1.279353
      25A     -1.133170    26A     -1.124656    27A     -1.120340
      28A     -0.832514    29A     -0.730984    30A     -0.659168
      31A     -0.654474    32A     -0.651086    33A     -0.580464
      34A     -0.535798    35A     -0.526430    36A     -0.505987
      37A     -0.488035    38A     -0.486371    39A     -0.480033
      40A     -0.458951    41A     -0.456583    42A     -0.452731

  @DF-RHF Final Energy: -1951.98521189547137

   => Energetics <=

    Nuclear Repulsion Energy =            566.6764471701643515
    One-Electron Energy =               -3826.8884338706534436
    Two-Electron Energy =                1308.2267748050176124
    Total Energy =                      -1951.9852118954713660

  Dipole Moment: [D]
     X:    -1.0293      Y:    -0.1294      Z:    -1.1812     Total:     1.5720

  Basis Set: (AUG-CC-PVQZ AUX)
    Blend: AUG-CC-PVQZ-RI
	 Reference Energy          =   -1951.9852118954713660 [Eh]
	 Singles Energy            =      -0.0000000000000000 [Eh]
	 Same-Spin Energy          =      -0.3266096602071509 [Eh]
	 Opposite-Spin Energy      =      -0.9959642418793589 [Eh]
	 Correlation Energy        =      -1.3225739020865097 [Eh]
	 Total Energy              =   -1953.3077857975579263 [Eh]

	 ================> DF-SCS-MP2 Energies <==================
	-----------------------------------------------------------
	 SCS Same-Spin Scale       =       0.3333333333333333 [-]
	 SCS Opposite-Spin Scale   =       1.2000000000000000 [-]
	 SCS Same-Spin Energy      =      -0.1088698867357170 [Eh]
	 SCS Opposite-Spin Energy  =      -1.1951570902552306 [Eh]
	 SCS Correlation Energy    =      -1.3040269769909476 [Eh]
	 SCS Total Energy          =   -1953.2892388724624197 [Eh]
	-----------------------------------------------------------

*** Psi4 exiting successfully. Buy a developer a beer!
