                               Psi4 1.3.2 release

  ==> Input File <==

--------------------------------------------------------------------------
molecule {
0 1
 Cl                 -1.2107509    -0.8798622     2.0388667
 Cl                 -1.2016718     1.2595512     0.0928711
 Cl                 -0.4324728    -1.4106835    -0.6944078
 Cl                  1.2946898     0.1437838     1.0222648
  C                 -0.3884123    -0.2223763     0.6163801
--
0 1
 Cl                  1.5490220     1.1632405    -2.6117489
 Cl                  1.7094556     3.1560881    -4.6953124
 Cl                  2.3553075     0.3993839    -5.2783420
 Cl                  4.1258503     1.9808024    -3.6290787
  C                  2.4351527     1.6748822    -4.0541130
}
memory 15GB
set_num_threads(4)
psi4_io.set_default_path("/scratch/bdw2292/Psi4-CCl4")
set maxiter 500
set freeze_core True
set PROPERTIES_ORIGIN ["COM"]
e_dim= energy('mp2/aug-cc-pV[TQ]Z',bsse_type='cp')

psi4.print_out('CP Energy = %10.6f' % (e_dim))
clean()
--------------------------------------------------------------------------

    Molecular point group: c1
  Charge       = 0
  Multiplicity = 1
  Basis Set: AUG-CC-PVTZ
    Blend: AUG-CC-PVTZ
  Basis Set: (AUG-CC-PVTZ AUX)
    Blend: AUG-CC-PVTZ-JKFIT
  @DF-RHF Final Energy: -1875.91638493770529
    Total Energy =                      -1875.9163849377052884
  Basis Set: (AUG-CC-PVTZ AUX)
    Blend: AUG-CC-PVTZ-RI
	 Reference Energy          =   -1875.9163849377052884 [Eh]
	 Singles Energy            =      -0.0000000000000000 [Eh]
	 Same-Spin Energy          =      -0.2463768253760919 [Eh]
	 Opposite-Spin Energy      =      -0.7042185870404720 [Eh]
	 Correlation Energy        =      -0.9505954124165639 [Eh]
	 Total Energy              =   -1876.8669803501218212 [Eh]
	 SCS Total Energy          =   -1876.8435728506126452 [Eh]
    Molecular point group: c1
  Basis Set: AUG-CC-PVQZ
    Blend: AUG-CC-PVQZ
  Basis Set: (AUG-CC-PVQZ AUX)
    Blend: AUG-CC-PVQZ-JKFIT
  @DF-RHF Final Energy: -1875.93369578586771
    Total Energy =                      -1875.9336957858677124
  Basis Set: (AUG-CC-PVQZ AUX)
  @DF-RHF Final Energy: -1875.91646087184381
    Total Energy =                      -1875.9164608718438103
  @DF-RHF Final Energy: -1875.93370916209756
    Total Energy =                      -1875.9337091620975571
  @DF-RHF Final Energy: -1875.91647283578163
    Total Energy =                      -1875.9164728357816330
  @DF-RHF Final Energy: -1875.93370751562725
    Total Energy =                      -1875.9337075156272476
  @DF-RHF Final Energy: -1875.91637816845036
    Total Energy =                      -1875.9163781684503647
  @DF-RHF Final Energy: -1875.93368617234137
    Total Energy =                      -1875.9336861723413676
  Multiplicity = 1
  @DF-RHF Final Energy: -3751.83107282752326
    Total Energy =                      -3751.8310728275232577
	 Singles Energy            =      -0.0000000000000000 [Eh]
	 Same-Spin Energy          =      -0.4953135236320094 [Eh]
	 Opposite-Spin Energy      =      -1.4115747939940642 [Eh]
	 Correlation Energy        =      -1.9068883176260736 [Eh]
	 Total Energy              =   -3753.7379611451492565 [Eh]
	 SCS Total Energy          =   -3753.6900670881932456 [Eh]
    Molecular point group: c1

    Geometry (in Angstrom), charge = 0, multiplicity = 1:

       Center              X                  Y                   Z               Mass
    ------------   -----------------  -----------------  -----------------  -----------------
         CL          -2.234405236270    -1.606377700616     3.758188532451    34.968852682000
         CL          -2.225326136270     0.533035699384     1.812192932451    34.968852682000
         CL          -1.456127136270    -2.137199000616     1.024914032451    34.968852682000
         CL           0.271035463730    -0.582731700616     2.741586632451    34.968852682000
         C           -1.412066636270    -0.948891800616     2.335701932451    12.000000000000
         CL           0.525367663730     0.436724999384    -0.892427067549    34.968852682000
         CL           0.685801263730     2.429572599384    -2.975990567549    34.968852682000
         CL           1.331653163730    -0.327131600616    -3.559020167549    34.968852682000
         CL           3.102195963730     1.254286899384    -1.909756867549    34.968852682000
         C            1.411498363730     0.948366699384    -2.334791167549    12.000000000000

  Charge       = 0
  Multiplicity = 1
  Basis Set: AUG-CC-PVQZ
    Blend: AUG-CC-PVQZ
  Basis Set: (AUG-CC-PVQZ AUX)
    Blend: AUG-CC-PVQZ-JKFIT

    Orbital Energies [Eh]
    ---------------------

    Doubly Occupied:

       1A   -104.877639     2A   -104.877480     3A   -104.877402
       4A   -104.877332     5A   -104.874923     6A   -104.874875
       7A   -104.874829     8A   -104.873249     9A    -11.498205
      10A    -11.495000    11A    -10.603360    12A    -10.603214
      13A    -10.603067    14A    -10.603051    15A    -10.600609
      16A    -10.600559    17A    -10.600517    18A    -10.599058
      19A     -8.070326    20A     -8.070179    21A     -8.070031
      22A     -8.070025    23A     -8.068233    24A     -8.068227
      25A     -8.068086    26A     -8.068079    27A     -8.067937
      28A     -8.067930    29A     -8.067926    30A     -8.067926
      31A     -8.067581    32A     -8.067531    33A     -8.067490
      34A     -8.066019    35A     -8.065489    36A     -8.065488
      37A     -8.065440    38A     -8.065438    39A     -8.065399
      40A     -8.065397    41A     -8.063888    42A     -8.063888
      43A     -1.283096    44A     -1.279981    45A     -1.129322
      46A     -1.129172    47A     -1.129074    48A     -1.126346
      49A     -1.126304    50A     -1.125390    51A     -0.835616
      52A     -0.832112    53A     -0.662434    54A     -0.659401
      55A     -0.659363    56A     -0.656631    57A     -0.656605
      58A     -0.654196    59A     -0.535122    60A     -0.534985
      61A     -0.529525    62A     -0.529468    63A     -0.495260
      64A     -0.490139    65A     -0.490127    66A     -0.487450
      67A     -0.487350    68A     -0.482318    69A     -0.463905
      70A     -0.463639    71A     -0.461822    72A     -0.459375
      73A     -0.456903    74A     -0.456563

  @DF-RHF Final Energy: -3751.86556946055498

   => Energetics <=

    Nuclear Repulsion Energy =           1381.2401725566592177
    One-Electron Energy =               -7939.8168796338941320
    Two-Electron Energy =                2806.7111376166794798
    Total Energy =                      -3751.8655694605549797

  Dipole Moment: [D]
     X:    -0.0656      Y:    -0.0532      Z:     0.1117     Total:     0.1400

  Basis Set: (AUG-CC-PVQZ AUX)
    Blend: AUG-CC-PVQZ-RI
	 Reference Energy          =   -3751.8655694605549797 [Eh]
	 Singles Energy            =      -0.0000000000000000 [Eh]
	 Same-Spin Energy          =      -0.5114448013387778 [Eh]
	 Opposite-Spin Energy      =      -1.5462850805547332 [Eh]
	 Correlation Energy        =      -2.0577298818935112 [Eh]
	 Total Energy              =   -3753.9232993424484448 [Eh]

	 ================> DF-SCS-MP2 Energies <==================
	-----------------------------------------------------------
	 SCS Same-Spin Scale       =       0.3333333333333333 [-]
	 SCS Opposite-Spin Scale   =       1.2000000000000000 [-]
	 SCS Same-Spin Energy      =      -0.1704816004462593 [Eh]
	 SCS Opposite-Spin Energy  =      -1.8555420966656797 [Eh]
	 SCS Correlation Energy    =      -2.0260236971119392 [Eh]
	 SCS Total Energy          =   -3753.8915931576671028 [Eh]
	-----------------------------------------------------------

*** Psi4 exiting successfully. Buy a developer a beer!
