                               Psi4 1.3.2 release

  ==> Input File <==

--------------------------------------------------------------------------
molecule {
0 1
 Cl                 -1.1871076    -0.8335049     1.5502738
 Cl                 -0.8653436     1.3740538    -0.2923766
 Cl                 -0.1207216    -1.2934769    -1.0993016
 Cl                  1.4598061     0.1120695     0.8621506
  C                 -0.1806370    -0.1611091     0.2591364
--
0 1
  O                  1.9141992     2.0968859    -1.7159810
  H                  1.4945116     1.2364308    -1.7188896
  H                  2.0992294     2.3465369    -2.6211717
}
memory 15GB
set_num_threads(4)
psi4_io.set_default_path("/scratch/bdw2292/Psi4-CCl4")
set maxiter 500
set freeze_core True
set PROPERTIES_ORIGIN ["COM"]
e_dim= energy('mp2/aug-cc-pV[TQ]Z',bsse_type='cp')

psi4.print_out('CP Energy = %10.6f' % (e_dim))
clean()
--------------------------------------------------------------------------

    Molecular point group: c1
  Charge       = 0
  Multiplicity = 1
  Basis Set: AUG-CC-PVTZ
    Blend: AUG-CC-PVTZ
  Basis Set: (AUG-CC-PVTZ AUX)
    Blend: AUG-CC-PVTZ-JKFIT
  @DF-RHF Final Energy:   -76.06045552149671
    Total Energy =                        -76.0604555214966922
  Basis Set: (AUG-CC-PVTZ AUX)
    Blend: AUG-CC-PVTZ-RI
	 Reference Energy          =     -76.0604555214967064 [Eh]
	 Singles Energy            =      -0.0000000000000000 [Eh]
	 Same-Spin Energy          =      -0.0650879862788246 [Eh]
	 Opposite-Spin Energy      =      -0.2029544229455081 [Eh]
	 Correlation Energy        =      -0.2680424092243328 [Eh]
	 Total Energy              =     -76.3284979307210421 [Eh]
	 SCS Total Energy          =     -76.3256968244575944 [Eh]
    Molecular point group: c1
  Basis Set: AUG-CC-PVQZ
    Blend: AUG-CC-PVQZ
  Basis Set: (AUG-CC-PVQZ AUX)
    Blend: AUG-CC-PVQZ-JKFIT
  @DF-RHF Final Energy:   -76.06584441411781
    Total Energy =                        -76.0658444141178052
  Basis Set: (AUG-CC-PVQZ AUX)
  @DF-RHF Final Energy:   -76.06049806104862
    Total Energy =                        -76.0604980610486052
  @DF-RHF Final Energy:   -76.06586716465981
    Total Energy =                        -76.0658671646598066
  @DF-RHF Final Energy: -1875.91650226808497
    Total Energy =                      -1875.9165022680849688
  @DF-RHF Final Energy: -1875.93371433443099
    Total Energy =                      -1875.9337143344309879
  @DF-RHF Final Energy: -1875.91637206780206
    Total Energy =                      -1875.9163720678020582
  @DF-RHF Final Energy: -1875.93368418776640
    Total Energy =                      -1875.9336841877664028
  Multiplicity = 1
  @DF-RHF Final Energy: -1951.97165055767459
    Total Energy =                      -1951.9716505576745931
	 Singles Energy            =      -0.0000000000000000 [Eh]
	 Same-Spin Energy          =      -0.3141622467440338 [Eh]
	 Opposite-Spin Energy      =      -0.9106557798754912 [Eh]
	 Correlation Energy        =      -1.2248180266195250 [Eh]
	 Total Energy              =   -1953.1964685842940526 [Eh]
	 SCS Total Energy          =   -1953.1691582424398348 [Eh]
    Molecular point group: c1

    Geometry (in Angstrom), charge = 0, multiplicity = 1:

       Center              X                  Y                   Z               Mass
    ------------   -----------------  -----------------  -----------------  -----------------
         CL          -1.229053710326    -0.908891463062     1.509169946234    34.968852682000
         CL          -0.907289710326     1.298667236938    -0.333480453766    34.968852682000
         CL          -0.162667710326    -1.368863463062    -1.140405453766    34.968852682000
         CL           1.417859989674     0.036682936938     0.821046746234    34.968852682000
         C           -0.222583110326    -0.236495663062     0.218032546234    12.000000000000
         O            1.872253089674     2.021499336938    -1.757084853766    15.994914619570
         H            1.452565489674     1.161044236938    -1.759993453766     1.007825032230
         H            2.057283289674     2.271150336938    -2.662275553766     1.007825032230

  Charge       = 0
  Multiplicity = 1
  Basis Set: AUG-CC-PVQZ
    Blend: AUG-CC-PVQZ
  Basis Set: (AUG-CC-PVQZ AUX)
    Blend: AUG-CC-PVQZ-JKFIT

    Orbital Energies [Eh]
    ---------------------

    Doubly Occupied:

       1A   -104.881170     2A   -104.877132     3A   -104.875126
       4A   -104.874381     5A    -20.557699     6A    -11.497757
       7A    -10.606984     8A    -10.602767     9A    -10.600915
      10A    -10.600253    11A     -8.073944    12A     -8.071893
      13A     -8.071867    14A     -8.069740    15A     -8.067869
      16A     -8.067641    17A     -8.067638    18A     -8.067199
      19A     -8.065761    20A     -8.065738    21A     -8.065096
      22A     -8.065070    23A     -1.346798    24A     -1.283340
      25A     -1.131550    26A     -1.128383    27A     -1.127252
      28A     -0.835012    29A     -0.724770    30A     -0.660149
      31A     -0.659163    32A     -0.658233    33A     -0.574625
      34A     -0.535817    35A     -0.532517    36A     -0.507302
      37A     -0.490157    38A     -0.489538    39A     -0.488084
      40A     -0.462902    41A     -0.461536    42A     -0.458226

  @DF-RHF Final Energy: -1951.99426390007852

   => Energetics <=

    Nuclear Repulsion Energy =            552.4607207711505907
    One-Electron Energy =               -3798.2119852166583769
    Two-Electron Energy =                1293.7570005454292641
    Total Energy =                      -1951.9942639000785221

  Dipole Moment: [D]
     X:    -0.3838      Y:    -0.8169      Z:    -1.3065     Total:     1.5880

  Basis Set: (AUG-CC-PVQZ AUX)
    Blend: AUG-CC-PVQZ-RI
	 Reference Energy          =   -1951.9942639000785221 [Eh]
	 Singles Energy            =      -0.0000000000000000 [Eh]
	 Same-Spin Energy          =      -0.3243077082447631 [Eh]
	 Opposite-Spin Energy      =      -0.9934204603684333 [Eh]
	 Correlation Energy        =      -1.3177281686131965 [Eh]
	 Total Energy              =   -1953.3119920686917794 [Eh]

	 ================> DF-SCS-MP2 Energies <==================
	-----------------------------------------------------------
	 SCS Same-Spin Scale       =       0.3333333333333333 [-]
	 SCS Opposite-Spin Scale   =       1.2000000000000000 [-]
	 SCS Same-Spin Energy      =      -0.1081025694149210 [Eh]
	 SCS Opposite-Spin Energy  =      -1.1921045524421199 [Eh]
	 SCS Correlation Energy    =      -1.3002071218570408 [Eh]
	 SCS Total Energy          =   -1953.2944710219355784 [Eh]
	-----------------------------------------------------------

*** Psi4 exiting successfully. Buy a developer a beer!
