                               Psi4 1.3.2 release

  ==> Input File <==

--------------------------------------------------------------------------
molecule {
0 1
 Cl                 -0.1579851    -0.2358107     1.5789989
 Cl                 -0.5853312     1.5314563    -0.6626172
 Cl                 -0.0039900    -1.2608089    -1.1136819
 Cl                  2.0634563     0.5020987    -0.1198940
  C                  0.3323723     0.1352885    -0.0797709
--
0 1
  O                 -3.0359785    -1.3761196     2.2857360
  H                 -2.9000141    -2.3234828     2.2839693
  H                 -2.6262186    -1.0108686     1.5012907
}
memory 15GB
set_num_threads(4)
psi4_io.set_default_path("/scratch/bdw2292/Psi4-CCl4")
set maxiter 500
set freeze_core True
set PROPERTIES_ORIGIN ["COM"]
e_dim= energy('mp2/aug-cc-pV[TQ]Z',bsse_type='cp')

psi4.print_out('CP Energy = %10.6f' % (e_dim))
clean()
--------------------------------------------------------------------------

    Molecular point group: c1
  Charge       = 0
  Multiplicity = 1
  Basis Set: AUG-CC-PVTZ
    Blend: AUG-CC-PVTZ
  Basis Set: (AUG-CC-PVTZ AUX)
    Blend: AUG-CC-PVTZ-JKFIT
  @DF-RHF Final Energy:   -76.06046042049887
    Total Energy =                        -76.0604604204988846
  Basis Set: (AUG-CC-PVTZ AUX)
    Blend: AUG-CC-PVTZ-RI
	 Reference Energy          =     -76.0604604204988703 [Eh]
	 Singles Energy            =      -0.0000000000000000 [Eh]
	 Same-Spin Energy          =      -0.0650895808719694 [Eh]
	 Opposite-Spin Energy      =      -0.2029601751510774 [Eh]
	 Correlation Energy        =      -0.2680497560230469 [Eh]
	 Total Energy              =     -76.3285101765219167 [Eh]
	 SCS Total Energy          =     -76.3257091576374904 [Eh]
    Molecular point group: c1
  Basis Set: AUG-CC-PVQZ
    Blend: AUG-CC-PVQZ
  Basis Set: (AUG-CC-PVQZ AUX)
    Blend: AUG-CC-PVQZ-JKFIT
  @DF-RHF Final Energy:   -76.06584912522553
    Total Energy =                        -76.0658491252255260
  Basis Set: (AUG-CC-PVQZ AUX)
  @DF-RHF Final Energy:   -76.06050225530669
    Total Energy =                        -76.0605022553066874
  @DF-RHF Final Energy:   -76.06586870963278
    Total Energy =                        -76.0658687096327810
  @DF-RHF Final Energy: -1875.91644815817381
    Total Energy =                      -1875.9164481581738073
  @DF-RHF Final Energy: -1875.93370312745219
    Total Energy =                      -1875.9337031274521905
  @DF-RHF Final Energy: -1875.91637441316720
    Total Energy =                      -1875.9163744131672047
  @DF-RHF Final Energy: -1875.93368448135107
    Total Energy =                      -1875.9336844813510652
  Multiplicity = 1
  @DF-RHF Final Energy: -1951.97457482460982
    Total Energy =                      -1951.9745748246098174
	 Singles Energy            =      -0.0000000000000000 [Eh]
	 Same-Spin Energy          =      -0.3130983917313356 [Eh]
	 Opposite-Spin Energy      =      -0.9092644841540225 [Eh]
	 Correlation Energy        =      -1.2223628758853580 [Eh]
	 Total Energy              =   -1953.1969377004952548 [Eh]
	 SCS Total Energy          =   -1953.1700583361716781 [Eh]
    Molecular point group: c1

    Geometry (in Angstrom), charge = 0, multiplicity = 1:

       Center              X                  Y                   Z               Mass
    ------------   -----------------  -----------------  -----------------  -----------------
         CL          -0.133751378082    -0.206544709084     1.412264336866    34.968852682000
         CL          -0.561097478082     1.560722290916    -0.829351763134    34.968852682000
         CL           0.020243721918    -1.231542909084    -1.280416463134    34.968852682000
         CL           2.087690021918     0.531364690916    -0.286628563134    34.968852682000
         C            0.356606021918     0.164554490916    -0.246505463134    12.000000000000
         O           -3.011744778082    -1.346853609084     2.119001436866    15.994914619570
         H           -2.875780378082    -2.294216809084     2.117234736866     1.007825032230
         H           -2.601984878082    -0.981602609084     1.334556136866     1.007825032230

  Charge       = 0
  Multiplicity = 1
  Basis Set: AUG-CC-PVQZ
    Blend: AUG-CC-PVQZ
  Basis Set: (AUG-CC-PVQZ AUX)
    Blend: AUG-CC-PVQZ-JKFIT

    Orbital Energies [Eh]
    ---------------------

    Doubly Occupied:

       1A   -104.882852     2A   -104.881661     3A   -104.881330
       4A   -104.880785     5A    -20.557690     6A    -11.501655
       7A    -10.608577     8A    -10.607543     9A    -10.607003
      10A    -10.606405    11A     -8.075545    12A     -8.074467
      13A     -8.073970    14A     -8.073463    15A     -8.073456
      16A     -8.073378    17A     -8.072376    18A     -8.072337
      19A     -8.071872    20A     -8.071866    21A     -8.071274
      22A     -8.071272    23A     -1.346656    24A     -1.287292
      25A     -1.134110    26A     -1.133502    27A     -1.132558
      28A     -0.839477    29A     -0.722863    30A     -0.663947
      31A     -0.663611    32A     -0.663100    33A     -0.575304
      34A     -0.538399    35A     -0.537896    36A     -0.509889
      37A     -0.494422    38A     -0.493909    39A     -0.491108
      40A     -0.466133    41A     -0.466109    42A     -0.464757

  @DF-RHF Final Energy: -1951.99721265985499

   => Energetics <=

    Nuclear Repulsion Energy =            539.2132431710696210
    One-Electron Energy =               -3771.3892750852946847
    Two-Electron Energy =                1280.1788192543699552
    Total Energy =                      -1951.9972126598549949

  Dipole Moment: [D]
     X:     1.1431      Y:    -0.8508      Z:    -1.2759     Total:     1.9127

  Basis Set: (AUG-CC-PVQZ AUX)
    Blend: AUG-CC-PVQZ-RI
	 Reference Energy          =   -1951.9972126598549949 [Eh]
	 Singles Energy            =      -0.0000000000000000 [Eh]
	 Same-Spin Energy          =      -0.3232340990208031 [Eh]
	 Opposite-Spin Energy      =      -0.9921008800081967 [Eh]
	 Correlation Energy        =      -1.3153349790289999 [Eh]
	 Total Energy              =   -1953.3125476388840980 [Eh]

	 ================> DF-SCS-MP2 Energies <==================
	-----------------------------------------------------------
	 SCS Same-Spin Scale       =       0.3333333333333333 [-]
	 SCS Opposite-Spin Scale   =       1.2000000000000000 [-]
	 SCS Same-Spin Energy      =      -0.1077446996736010 [Eh]
	 SCS Opposite-Spin Energy  =      -1.1905210560098360 [Eh]
	 SCS Correlation Energy    =      -1.2982657556834372 [Eh]
	 SCS Total Energy          =   -1953.2954784155383550 [Eh]
	-----------------------------------------------------------

*** Psi4 exiting successfully. Buy a developer a beer!
