                               Psi4 1.3.2 release

  ==> Input File <==

--------------------------------------------------------------------------
molecule {
0 1
 Cl                 -1.3216509    -1.2809349     0.3222521
 Cl                 -0.8136453     1.3984708    -0.6254683
 Cl                  0.5982673    -0.8387328    -1.7959308
 Cl                  1.1940644     0.0026420     0.9073311
  C                 -0.0850511    -0.1807108    -0.3019604
--
0 1
  O                 -1.1580372     0.7723017     5.1986747
  H                 -1.2175402    -0.1579457     5.4153963
  H                 -0.6063893     0.8652318     4.4219073
}
memory 15GB
set_num_threads(4)
psi4_io.set_default_path("/scratch/bdw2292/Psi4-CCl4")
set maxiter 500
set freeze_core True
set PROPERTIES_ORIGIN ["COM"]
e_dim= energy('mp2/aug-cc-pV[TQ]Z',bsse_type='cp')

psi4.print_out('CP Energy = %10.6f' % (e_dim))
clean()
--------------------------------------------------------------------------

    Molecular point group: c1
  Charge       = 0
  Multiplicity = 1
  Basis Set: AUG-CC-PVTZ
    Blend: AUG-CC-PVTZ
  Basis Set: (AUG-CC-PVTZ AUX)
    Blend: AUG-CC-PVTZ-JKFIT
  @DF-RHF Final Energy:   -76.06048004215366
    Total Energy =                        -76.0604800421536567
  Basis Set: (AUG-CC-PVTZ AUX)
    Blend: AUG-CC-PVTZ-RI
	 Reference Energy          =     -76.0604800421536567 [Eh]
	 Singles Energy            =      -0.0000000000000000 [Eh]
	 Same-Spin Energy          =      -0.0650883047424593 [Eh]
	 Opposite-Spin Energy      =      -0.2029563683036438 [Eh]
	 Correlation Energy        =      -0.2680446730461031 [Eh]
	 Total Energy              =     -76.3285247151997623 [Eh]
	 SCS Total Energy          =     -76.3257237856988553 [Eh]
    Molecular point group: c1
  Basis Set: AUG-CC-PVQZ
    Blend: AUG-CC-PVQZ
  Basis Set: (AUG-CC-PVQZ AUX)
    Blend: AUG-CC-PVQZ-JKFIT
  @DF-RHF Final Energy:   -76.06586944416395
    Total Energy =                        -76.0658694441639511
  Basis Set: (AUG-CC-PVQZ AUX)
  @DF-RHF Final Energy:   -76.06048859006654
    Total Energy =                        -76.0604885900665408
  @DF-RHF Final Energy:   -76.06587361158090
    Total Energy =                        -76.0658736115808978
  @DF-RHF Final Energy: -1875.91639261117439
    Total Energy =                      -1875.9163926111743876
  @DF-RHF Final Energy: -1875.93369287175756
    Total Energy =                      -1875.9336928717575574
  @DF-RHF Final Energy: -1875.91637473089122
    Total Energy =                      -1875.9163747308912207
  @DF-RHF Final Energy: -1875.93368661178647
    Total Energy =                      -1875.9336866117864702
  Multiplicity = 1
  @DF-RHF Final Energy: -1951.97708207710707
    Total Energy =                      -1951.9770820771070703
	 Singles Energy            =      -0.0000000000000000 [Eh]
	 Same-Spin Energy          =      -0.3116602596411485 [Eh]
	 Opposite-Spin Energy      =      -0.9074442950256815 [Eh]
	 Correlation Energy        =      -1.2191045546668300 [Eh]
	 Total Energy              =   -1953.1961866317737986 [Eh]
	 SCS Total Energy          =   -1953.1699019843515543 [Eh]
    Molecular point group: c1

    Geometry (in Angstrom), charge = 0, multiplicity = 1:

       Center              X                  Y                   Z               Mass
    ------------   -----------------  -----------------  -----------------  -----------------
         CL          -1.125197978315    -1.197173720662     0.041083043919    34.968852682000
         CL          -0.617192378315     1.482231979338    -0.906637356081    34.968852682000
         CL           0.794720221685    -0.754971620662    -2.077099856081    34.968852682000
         CL           1.390517321685     0.086403179338     0.626162043919    34.968852682000
         C            0.111401821685    -0.096949620662    -0.583129456081    12.000000000000
         O           -0.961584278315     0.856062879338     4.917505643919    15.994914619570
         H           -1.021087278315    -0.074184520662     5.134227243919     1.007825032230
         H           -0.409936378315     0.948992979338     4.140738243919     1.007825032230

  Charge       = 0
  Multiplicity = 1
  Basis Set: AUG-CC-PVQZ
    Blend: AUG-CC-PVQZ
  Basis Set: (AUG-CC-PVQZ AUX)
    Blend: AUG-CC-PVQZ-JKFIT

    Orbital Energies [Eh]
    ---------------------

    Doubly Occupied:

       1A   -104.882112     2A   -104.880717     3A   -104.880712
       4A   -104.880081     5A    -20.561325     6A    -11.501425
       7A    -10.607846     8A    -10.606417     9A    -10.606325
      10A    -10.605749    11A     -8.074817    12A     -8.073388
      13A     -8.073298    14A     -8.072739    15A     -8.072734
      16A     -8.072720    17A     -8.071291    18A     -8.071288
      19A     -8.071194    20A     -8.071192    21A     -8.070614
      22A     -8.070612    23A     -1.348584    24A     -1.286378
      25A     -1.133103    26A     -1.132218    27A     -1.131727
      28A     -0.838539    29A     -0.723387    30A     -0.663119
      31A     -0.662810    32A     -0.662455    33A     -0.576060
      34A     -0.536970    35A     -0.536671    36A     -0.507748
      37A     -0.494227    38A     -0.493461    39A     -0.493008
      40A     -0.465745    41A     -0.465186    42A     -0.464709

  @DF-RHF Final Energy: -1951.99976452079500

   => Energetics <=

    Nuclear Repulsion Energy =            517.9975624577498365
    One-Electron Energy =               -3729.0052569210538422
    Two-Electron Energy =                1259.0079299425087811
    Total Energy =                      -1951.9997645207949972

  Dipole Moment: [D]
     X:     0.8081      Y:    -1.4255      Z:    -1.1316     Total:     1.9914

  Basis Set: (AUG-CC-PVQZ AUX)
    Blend: AUG-CC-PVQZ-RI
	 Reference Energy          =   -1951.9997645207949972 [Eh]
	 Singles Energy            =      -0.0000000000000000 [Eh]
	 Same-Spin Energy          =      -0.3217787366877826 [Eh]
	 Opposite-Spin Energy      =      -0.9903744349053240 [Eh]
	 Correlation Energy        =      -1.3121531715931065 [Eh]
	 Total Energy              =   -1953.3119176923880786 [Eh]

	 ================> DF-SCS-MP2 Energies <==================
	-----------------------------------------------------------
	 SCS Same-Spin Scale       =       0.3333333333333333 [-]
	 SCS Opposite-Spin Scale   =       1.2000000000000000 [-]
	 SCS Same-Spin Energy      =      -0.1072595788959275 [Eh]
	 SCS Opposite-Spin Energy  =      -1.1884493218863887 [Eh]
	 SCS Correlation Energy    =      -1.2957089007823162 [Eh]
	 SCS Total Energy          =   -1953.2954734215772987 [Eh]
	-----------------------------------------------------------

*** Psi4 exiting successfully. Buy a developer a beer!
