                               Psi4 1.3.2 release

  ==> Input File <==

--------------------------------------------------------------------------
molecule {
0 1
 Cl                 -0.9834540    -0.5863909     1.9222969
 Cl                 -1.0203298     1.3185487    -0.2497215
 Cl                 -0.3649296    -1.4476266    -0.7655753
 Cl                  1.4944115     0.2308771     0.6813521
  C                 -0.2163540    -0.1195090     0.3969557
--
0 1
  O                  1.3305394     0.6994534    -2.6015700
  H                  0.6158717     0.0661994    -2.5304573
  H                  1.2555936     1.1471104    -3.4441620
}
memory 15GB
set_num_threads(4)
psi4_io.set_default_path("/scratch/bdw2292/Psi4-CCl4")
set maxiter 500
set freeze_core True
set PROPERTIES_ORIGIN ["COM"]
e_dim= energy('mp2/aug-cc-pV[TQ]Z',bsse_type='cp')

psi4.print_out('CP Energy = %10.6f' % (e_dim))
clean()
--------------------------------------------------------------------------

    Molecular point group: c1
  Charge       = 0
  Multiplicity = 1
  Basis Set: AUG-CC-PVTZ
    Blend: AUG-CC-PVTZ
  Basis Set: (AUG-CC-PVTZ AUX)
    Blend: AUG-CC-PVTZ-JKFIT
  @DF-RHF Final Energy:   -76.06044970266139
    Total Energy =                        -76.0604497026614013
  Basis Set: (AUG-CC-PVTZ AUX)
    Blend: AUG-CC-PVTZ-RI
	 Reference Energy          =     -76.0604497026613871 [Eh]
	 Singles Energy            =      -0.0000000000000000 [Eh]
	 Same-Spin Energy          =      -0.0650895908597764 [Eh]
	 Opposite-Spin Energy      =      -0.2029598414701477 [Eh]
	 Correlation Energy        =      -0.2680494323299241 [Eh]
	 Total Energy              =     -76.3284991349913042 [Eh]
	 SCS Total Energy          =     -76.3256980427121619 [Eh]
    Molecular point group: c1
  Basis Set: AUG-CC-PVQZ
    Blend: AUG-CC-PVQZ
  Basis Set: (AUG-CC-PVQZ AUX)
    Blend: AUG-CC-PVQZ-JKFIT
  @DF-RHF Final Energy:   -76.06583816218544
    Total Energy =                        -76.0658381621854431
  Basis Set: (AUG-CC-PVQZ AUX)
  @DF-RHF Final Energy:   -76.06049709868398
    Total Energy =                        -76.0604970986839675
  @DF-RHF Final Energy:   -76.06586412126167
    Total Energy =                        -76.0658641212616544
  @DF-RHF Final Energy: -1875.91649361135592
    Total Energy =                      -1875.9164936113559179
  @DF-RHF Final Energy: -1875.93369761888835
    Total Energy =                      -1875.9336976188883455
  @DF-RHF Final Energy: -1875.91636516046196
    Total Energy =                      -1875.9163651604619645
  @DF-RHF Final Energy: -1875.93366824579289
    Total Energy =                      -1875.9336682457928873
  Multiplicity = 1
  @DF-RHF Final Energy: -1951.97284648581763
    Total Energy =                      -1951.9728464858176267
	 Singles Energy            =      -0.0000000000000000 [Eh]
	 Same-Spin Energy          =      -0.3142147948434175 [Eh]
	 Opposite-Spin Energy      =      -0.9106477686108276 [Eh]
	 Correlation Energy        =      -1.2248625634542452 [Eh]
	 Total Energy              =   -1953.1977090492719071 [Eh]
	 SCS Total Energy          =   -1953.1703620730984312 [Eh]
    Molecular point group: c1

    Geometry (in Angstrom), charge = 0, multiplicity = 1:

       Center              X                  Y                   Z               Mass
    ------------   -----------------  -----------------  -----------------  -----------------
         CL          -0.924581520155    -0.551254259956     1.847699444014    34.968852682000
         CL          -0.961457320155     1.353685340044    -0.324318955986    34.968852682000
         CL          -0.306057120155    -1.412489959956    -0.840172755986    34.968852682000
         CL           1.553283979845     0.266013740044     0.606754644014    34.968852682000
         C           -0.157481520155    -0.084372359956     0.322358244014    12.000000000000
         O            1.389411879845     0.734590040044    -2.676167455986    15.994914619570
         H            0.674744179845     0.101336040044    -2.605054755986     1.007825032230
         H            1.314466079845     1.182247040044    -3.518759455986     1.007825032230

  Charge       = 0
  Multiplicity = 1
  Basis Set: AUG-CC-PVQZ
    Blend: AUG-CC-PVQZ
  Basis Set: (AUG-CC-PVQZ AUX)
    Blend: AUG-CC-PVQZ-JKFIT

    Orbital Energies [Eh]
    ---------------------

    Doubly Occupied:

       1A   -104.880365     2A   -104.874745     3A   -104.872915
       4A   -104.869074     5A    -20.556998     6A    -11.495480
       7A    -10.606336     8A    -10.600421     9A    -10.598668
      10A    -10.594685    11A     -8.073289    12A     -8.071286
      13A     -8.071241    14A     -8.067391    15A     -8.065637
      16A     -8.065300    17A     -8.065294    18A     -8.063545
      19A     -8.063525    20A     -8.061657    21A     -8.059521
      22A     -8.059503    23A     -1.346704    24A     -1.279797
      25A     -1.130649    26A     -1.125380    27A     -1.122255
      28A     -0.832552    29A     -0.724952    30A     -0.658328
      31A     -0.655513    32A     -0.654428    33A     -0.576110
      34A     -0.532088    35A     -0.529950    36A     -0.507423
      37A     -0.488088    38A     -0.486775    39A     -0.483634
      40A     -0.460728    41A     -0.458490    42A     -0.455531

  @DF-RHF Final Energy: -1951.99544333636436

   => Energetics <=

    Nuclear Repulsion Energy =            555.4014872364454050
    One-Electron Energy =               -3804.3013488639658135
    Two-Electron Energy =                1296.9044182911559346
    Total Energy =                      -1951.9954433363643602

  Dipole Moment: [D]
     X:    -1.0882      Y:    -0.1338      Z:    -1.1751     Total:     1.6071

  Basis Set: (AUG-CC-PVQZ AUX)
    Blend: AUG-CC-PVQZ-RI
	 Reference Energy          =   -1951.9954433363643602 [Eh]
	 Singles Energy            =      -0.0000000000000000 [Eh]
	 Same-Spin Energy          =      -0.3243564145886334 [Eh]
	 Opposite-Spin Energy      =      -0.9934110382517439 [Eh]
	 Correlation Energy        =      -1.3177674528403773 [Eh]
	 Total Energy              =   -1953.3132107892047316 [Eh]

	 ================> DF-SCS-MP2 Energies <==================
	-----------------------------------------------------------
	 SCS Same-Spin Scale       =       0.3333333333333333 [-]
	 SCS Opposite-Spin Scale   =       1.2000000000000000 [-]
	 SCS Same-Spin Energy      =      -0.1081188048628778 [Eh]
	 SCS Opposite-Spin Energy  =      -1.1920932459020928 [Eh]
	 SCS Correlation Energy    =      -1.3002120507649706 [Eh]
	 SCS Total Energy          =   -1953.2956553871292726 [Eh]
	-----------------------------------------------------------

*** Psi4 exiting successfully. Buy a developer a beer!
