                               Psi4 1.3.2 release

  ==> Input File <==

--------------------------------------------------------------------------
molecule {
0 1
 Cl                 -1.2107509    -0.8798622     2.0388667
 Cl                 -1.2016718     1.2595512     0.0928711
 Cl                 -0.4324728    -1.4106835    -0.6944078
 Cl                  1.2946898     0.1437838     1.0222648
  C                 -0.3884123    -0.2223763     0.6163801
--
0 1
 Cl                  1.1615351     0.8861171    -1.9661231
 Cl                  1.3219687     2.8789647    -4.0496866
 Cl                  1.9678207     0.1222606    -4.6327162
 Cl                  3.7383634     1.7036791    -2.9834529
  C                  2.0476658     1.3977589    -3.4084872
}
memory 15GB
set_num_threads(4)
psi4_io.set_default_path("/scratch/bdw2292/Psi4-CCl4")
set maxiter 500
set freeze_core True
set PROPERTIES_ORIGIN ["COM"]
e_dim= energy('mp2/aug-cc-pV[TQ]Z',bsse_type='cp')

psi4.print_out('CP Energy = %10.6f' % (e_dim))
clean()
--------------------------------------------------------------------------

    Molecular point group: c1
  Charge       = 0
  Multiplicity = 1
  Basis Set: AUG-CC-PVTZ
    Blend: AUG-CC-PVTZ
  Basis Set: (AUG-CC-PVTZ AUX)
    Blend: AUG-CC-PVTZ-JKFIT
  @DF-RHF Final Energy: -1875.91638493831488
    Total Energy =                      -1875.9163849383148772
  Basis Set: (AUG-CC-PVTZ AUX)
    Blend: AUG-CC-PVTZ-RI
	 Reference Energy          =   -1875.9163849383148772 [Eh]
	 Singles Energy            =      -0.0000000000000000 [Eh]
	 Same-Spin Energy          =      -0.2463768257527446 [Eh]
	 Opposite-Spin Energy      =      -0.7042185864994545 [Eh]
	 Correlation Energy        =      -0.9505954122521991 [Eh]
	 Total Energy              =   -1876.8669803505670188 [Eh]
	 SCS Total Energy          =   -1876.8435728506983651 [Eh]
    Molecular point group: c1
  Basis Set: AUG-CC-PVQZ
    Blend: AUG-CC-PVQZ
  Basis Set: (AUG-CC-PVQZ AUX)
    Blend: AUG-CC-PVQZ-JKFIT
  @DF-RHF Final Energy: -1875.93369578609645
    Total Energy =                      -1875.9336957860964503
  Basis Set: (AUG-CC-PVQZ AUX)
  @DF-RHF Final Energy: -1875.91651443038063
    Total Energy =                      -1875.9165144303806301
  @DF-RHF Final Energy: -1875.93372229643433
    Total Energy =                      -1875.9337222964343255
  @DF-RHF Final Energy: -1875.91654603071402
    Total Energy =                      -1875.9165460307140165
  @DF-RHF Final Energy: -1875.93372411479709
    Total Energy =                      -1875.9337241147970872
  @DF-RHF Final Energy: -1875.91637816905381
    Total Energy =                      -1875.9163781690538144
  @DF-RHF Final Energy: -1875.93368617248188
    Total Energy =                      -1875.9336861724818846
  Multiplicity = 1
  @DF-RHF Final Energy: -3751.81252060005590
    Total Energy =                      -3751.8125206000559047
	 Singles Energy            =      -0.0000000000000000 [Eh]
	 Same-Spin Energy          =      -0.5006588168118594 [Eh]
	 Opposite-Spin Energy      =      -1.4178279002495453 [Eh]
	 Correlation Energy        =      -1.9184867170614046 [Eh]
	 Total Energy              =   -3753.7310073171174736 [Eh]
	 SCS Total Energy          =   -3753.6808003526261928 [Eh]
    Molecular point group: c1

    Geometry (in Angstrom), charge = 0, multiplicity = 1:

       Center              X                  Y                   Z               Mass
    ------------   -----------------  -----------------  -----------------  -----------------
         CL          -2.040661797782    -1.467816027592     3.435375632451    34.968852682000
         CL          -2.031582697782     0.671597372408     1.489380032451    34.968852682000
         CL          -1.262383697782    -1.998637327592     0.702101132451    34.968852682000
         CL           0.464778902218    -0.444170027592     2.418773732451    34.968852682000
         C           -1.218323197782    -0.810330127592     2.012889032451    12.000000000000
         CL           0.331624202218     0.298163272408    -0.569614167549    34.968852682000
         CL           0.492057802218     2.291010872408    -2.653177667549    34.968852682000
         CL           1.137909802218    -0.465693227592    -3.236207267549    34.968852682000
         CL           2.908452502218     1.115725272408    -1.586943967549    34.968852682000
         C            1.217754902218     0.809805072408    -2.011978267549    12.000000000000

  Charge       = 0
  Multiplicity = 1
  Basis Set: AUG-CC-PVQZ
    Blend: AUG-CC-PVQZ
  Basis Set: (AUG-CC-PVQZ AUX)
    Blend: AUG-CC-PVQZ-JKFIT

    Orbital Energies [Eh]
    ---------------------

    Doubly Occupied:

       1A   -104.877503     2A   -104.876818     3A   -104.876026
       4A   -104.875599     5A   -104.873503     6A   -104.873400
       7A   -104.873205     8A   -104.867030     9A    -11.498535
      10A    -11.492203    11A    -10.603137    12A    -10.602867
      13A    -10.602190    14A    -10.601786    15A    -10.599220
      16A    -10.599114    17A    -10.598926    18A    -10.594039
      19A     -8.070106    20A     -8.069803    21A     -8.069112
      22A     -8.068705    23A     -8.068003    24A     -8.068002
      25A     -8.067737    26A     -8.067698    27A     -8.067058
      28A     -8.067007    29A     -8.066652    30A     -8.066600
      31A     -8.066193    32A     -8.066087    33A     -8.065899
      34A     -8.064112    35A     -8.064109    36A     -8.064007
      37A     -8.064003    38A     -8.063818    39A     -8.063814
      40A     -8.060920    41A     -8.058627    42A     -8.058620
      43A     -1.285120    44A     -1.277694    45A     -1.133504
      46A     -1.130176    47A     -1.129952    48A     -1.124990
      49A     -1.124868    50A     -1.121214    51A     -0.837617
      52A     -0.830860    53A     -0.675672    54A     -0.660213
      55A     -0.660022    56A     -0.655106    57A     -0.655013
      58A     -0.644231    59A     -0.544532    60A     -0.544038
      61A     -0.524545    62A     -0.524469    63A     -0.502535
      64A     -0.490582    65A     -0.490459    66A     -0.487782
      67A     -0.486809    68A     -0.468725    69A     -0.468434
      70A     -0.468066    71A     -0.462011    72A     -0.458117
      73A     -0.446774    74A     -0.445155

  @DF-RHF Final Energy: -3751.84701497304968

   => Energetics <=

    Nuclear Repulsion Energy =           1461.6256410012219931
    One-Electron Energy =               -8100.7031484838535107
    Two-Electron Energy =                2887.2304925095818362
    Total Energy =                      -3751.8470149730496814

  Dipole Moment: [D]
     X:    -0.0973      Y:    -0.0769      Z:     0.1685     Total:     0.2092

  Basis Set: (AUG-CC-PVQZ AUX)
    Blend: AUG-CC-PVQZ-RI
	 Reference Energy          =   -3751.8470149730496814 [Eh]
	 Singles Energy            =      -0.0000000000000000 [Eh]
	 Same-Spin Energy          =      -0.5169840582279266 [Eh]
	 Opposite-Spin Energy      =      -1.5527408962499474 [Eh]
	 Correlation Energy        =      -2.0697249544778740 [Eh]
	 Total Energy              =   -3753.9167399275274875 [Eh]

	 ================> DF-SCS-MP2 Energies <==================
	-----------------------------------------------------------
	 SCS Same-Spin Scale       =       0.3333333333333333 [-]
	 SCS Opposite-Spin Scale   =       1.2000000000000000 [-]
	 SCS Same-Spin Energy      =      -0.1723280194093089 [Eh]
	 SCS Opposite-Spin Energy  =      -1.8632890754999367 [Eh]
	 SCS Correlation Energy    =      -2.0356170949092456 [Eh]
	 SCS Total Energy          =   -3753.8826320679590935 [Eh]
	-----------------------------------------------------------

*** Psi4 exiting successfully. Buy a developer a beer!
