                               Psi4 1.3.2 release

  ==> Input File <==

--------------------------------------------------------------------------
molecule {
0 1
 Cl                 -0.9834540    -0.5863909     1.9222969
 Cl                 -1.0203298     1.3185487    -0.2497215
 Cl                 -0.3649296    -1.4476266    -0.7655753
 Cl                  1.4944115     0.2308771     0.6813521
  C                 -0.2163540    -0.1195090     0.3969557
--
0 1
  O                  1.6742935     0.8814451    -3.2679091
  H                  0.9596257     0.2481911    -3.1967963
  H                  1.5993477     1.3291020    -4.1105011
}
memory 15GB
set_num_threads(4)
psi4_io.set_default_path("/scratch/bdw2292/Psi4-CCl4")
set maxiter 500
set freeze_core True
set PROPERTIES_ORIGIN ["COM"]
e_dim= energy('mp2/aug-cc-pV[TQ]Z',bsse_type='cp')

psi4.print_out('CP Energy = %10.6f' % (e_dim))
clean()
--------------------------------------------------------------------------

    Molecular point group: c1
  Charge       = 0
  Multiplicity = 1
  Basis Set: AUG-CC-PVTZ
    Blend: AUG-CC-PVTZ
  Basis Set: (AUG-CC-PVTZ AUX)
    Blend: AUG-CC-PVTZ-JKFIT
  @DF-RHF Final Energy:   -76.06044970130526
    Total Energy =                        -76.0604497013052594
  Basis Set: (AUG-CC-PVTZ AUX)
    Blend: AUG-CC-PVTZ-RI
	 Reference Energy          =     -76.0604497013052594 [Eh]
	 Singles Energy            =      -0.0000000000000000 [Eh]
	 Same-Spin Energy          =      -0.0650895911772411 [Eh]
	 Opposite-Spin Energy      =      -0.2029598425379497 [Eh]
	 Correlation Energy        =      -0.2680494337151907 [Eh]
	 Total Energy              =     -76.3284991350204507 [Eh]
	 SCS Total Energy          =     -76.3256980427432126 [Eh]
    Molecular point group: c1
  Basis Set: AUG-CC-PVQZ
    Blend: AUG-CC-PVQZ
  Basis Set: (AUG-CC-PVQZ AUX)
    Blend: AUG-CC-PVQZ-JKFIT
  @DF-RHF Final Energy:   -76.06583816072691
    Total Energy =                        -76.0658381607269121
  Basis Set: (AUG-CC-PVQZ AUX)
  @DF-RHF Final Energy:   -76.06046901110177
    Total Energy =                        -76.0604690111017874
  @DF-RHF Final Energy:   -76.06584740028394
    Total Energy =                        -76.0658474002839284
  @DF-RHF Final Energy: -1875.91643371499481
    Total Energy =                      -1875.9164337149948096
  @DF-RHF Final Energy: -1875.93368516909595
    Total Energy =                      -1875.9336851690959520
  @DF-RHF Final Energy: -1875.91636515983146
    Total Energy =                      -1875.9163651598314573
  @DF-RHF Final Energy: -1875.93366824735926
    Total Energy =                      -1875.9336682473592646
  Multiplicity = 1
  @DF-RHF Final Energy: -1951.97670112717151
    Total Energy =                      -1951.9767011271715091
	 Singles Energy            =      -0.0000000000000000 [Eh]
	 Same-Spin Energy          =      -0.3123291086245562 [Eh]
	 Opposite-Spin Energy      =      -0.9083568042286956 [Eh]
	 Correlation Energy        =      -1.2206859128532517 [Eh]
	 Total Energy              =   -1953.1973870400247506 [Eh]
	 SCS Total Energy          =   -1953.1708389951209028 [Eh]
    Molecular point group: c1

    Geometry (in Angstrom), charge = 0, multiplicity = 1:

       Center              X                  Y                   Z               Mass
    ------------   -----------------  -----------------  -----------------  -----------------
         CL          -0.961024818889    -0.570548219779     1.918341787104    34.968852682000
         CL          -0.997900618889     1.334391380221    -0.253676612896    34.968852682000
         CL          -0.342500418889    -1.431783919779    -0.769530412896    34.968852682000
         CL           1.516840681111     0.246719780221     0.677396987104    34.968852682000
         C           -0.193924818889    -0.103666319779     0.393000587104    12.000000000000
         O            1.696722681111     0.897287780221    -3.271864212896    15.994914619570
         H            0.982054881111     0.264033780221    -3.200751412896     1.007825032230
         H            1.621776881111     1.344944680221    -4.114456212896     1.007825032230

  Charge       = 0
  Multiplicity = 1
  Basis Set: AUG-CC-PVQZ
    Blend: AUG-CC-PVQZ
  Basis Set: (AUG-CC-PVQZ AUX)
    Blend: AUG-CC-PVQZ-JKFIT

    Orbital Energies [Eh]
    ---------------------

    Doubly Occupied:

       1A   -104.878103     2A   -104.875075     3A   -104.874677
       4A   -104.872388     5A    -20.560588     6A    -11.495905
       7A    -10.603840     8A    -10.600756     9A    -10.600346
      10A    -10.597972    11A     -8.070809    12A     -8.068755
      13A     -8.068743    14A     -8.067727    15A     -8.067319
      16A     -8.065635    17A     -8.065632    18A     -8.065224
      19A     -8.065215    20A     -8.064945    21A     -8.062821
      22A     -8.062812    23A     -1.347942    24A     -1.280120
      25A     -1.128435    26A     -1.126196    27A     -1.124535
      28A     -0.832765    29A     -0.723325    30A     -0.657641
      31A     -0.656650    32A     -0.655951    33A     -0.575433
      34A     -0.531193    35A     -0.530769    36A     -0.507608
      37A     -0.488275    38A     -0.487324    39A     -0.487027
      40A     -0.460720    41A     -0.459374    42A     -0.457878

  @DF-RHF Final Energy: -1951.99934591665783

   => Energetics <=

    Nuclear Repulsion Energy =            537.8169297255055881
    One-Electron Energy =               -3769.0836565579784292
    Two-Electron Energy =                1279.2673809158152380
    Total Energy =                      -1951.9993459166578305

  Dipole Moment: [D]
     X:    -1.1759      Y:    -0.1835      Z:    -1.2089     Total:     1.6964

  Basis Set: (AUG-CC-PVQZ AUX)
    Blend: AUG-CC-PVQZ-RI
	 Reference Energy          =   -1951.9993459166578305 [Eh]
	 Singles Energy            =      -0.0000000000000000 [Eh]
	 Same-Spin Energy          =      -0.3224458512167083 [Eh]
	 Opposite-Spin Energy      =      -0.9912048661442777 [Eh]
	 Correlation Energy        =      -1.3136507173609862 [Eh]
	 Total Energy              =   -1953.3129966340188730 [Eh]

	 ================> DF-SCS-MP2 Energies <==================
	-----------------------------------------------------------
	 SCS Same-Spin Scale       =       0.3333333333333333 [-]
	 SCS Opposite-Spin Scale   =       1.2000000000000000 [-]
	 SCS Same-Spin Energy      =      -0.1074819504055694 [Eh]
	 SCS Opposite-Spin Energy  =      -1.1894458393731333 [Eh]
	 SCS Correlation Energy    =      -1.2969277897787028 [Eh]
	 SCS Total Energy          =   -1953.2962737064365228 [Eh]
	-----------------------------------------------------------

*** Psi4 exiting successfully. Buy a developer a beer!
