                               Psi4 1.3.2 release

  ==> Input File <==

--------------------------------------------------------------------------
molecule {
0 1
 Cl                 -1.1871076    -0.8335049     1.5502738
 Cl                 -0.8653436     1.3740538    -0.2923766
 Cl                 -0.1207216    -1.2934769    -1.0993016
 Cl                  1.4598061     0.1120695     0.8621506
  C                 -0.1806370    -0.1611091     0.2591364
--
0 1
  O                  2.9981189     3.0011764    -2.9958802
  H                  2.5784312     2.1407213    -2.9987888
  H                  3.1831491     3.2508275    -3.9010709
}
memory 15GB
set_num_threads(4)
psi4_io.set_default_path("/scratch/bdw2292/Psi4-CCl4")
set maxiter 500
set freeze_core True
set PROPERTIES_ORIGIN ["COM"]
e_dim= energy('mp2/aug-cc-pV[TQ]Z',bsse_type='cp')

psi4.print_out('CP Energy = %10.6f' % (e_dim))
clean()
--------------------------------------------------------------------------

    Molecular point group: c1
  Charge       = 0
  Multiplicity = 1
  Basis Set: AUG-CC-PVTZ
    Blend: AUG-CC-PVTZ
  Basis Set: (AUG-CC-PVTZ AUX)
    Blend: AUG-CC-PVTZ-JKFIT
  @DF-RHF Final Energy:   -76.06045551821687
    Total Energy =                        -76.0604555182168696
  Basis Set: (AUG-CC-PVTZ AUX)
    Blend: AUG-CC-PVTZ-RI
	 Reference Energy          =     -76.0604555182168696 [Eh]
	 Singles Energy            =      -0.0000000000000000 [Eh]
	 Same-Spin Energy          =      -0.0650879868517391 [Eh]
	 Opposite-Spin Energy      =      -0.2029544248369392 [Eh]
	 Correlation Energy        =      -0.2680424116886783 [Eh]
	 Total Energy              =     -76.3284979299055522 [Eh]
	 SCS Total Energy          =     -76.3256968236384381 [Eh]
    Molecular point group: c1
  Basis Set: AUG-CC-PVQZ
    Blend: AUG-CC-PVQZ
  Basis Set: (AUG-CC-PVQZ AUX)
    Blend: AUG-CC-PVQZ-JKFIT
  @DF-RHF Final Energy:   -76.06584441067264
    Total Energy =                        -76.0658444106726392
  Basis Set: (AUG-CC-PVQZ AUX)
  @DF-RHF Final Energy:   -76.06046136377107
    Total Energy =                        -76.0604613637710543
  @DF-RHF Final Energy:   -76.06584731399228
    Total Energy =                        -76.0658473139922791
  @DF-RHF Final Energy: -1875.91639170015674
    Total Energy =                      -1875.9163917001567370
  @DF-RHF Final Energy: -1875.93369036891727
    Total Energy =                      -1875.9336903689172686
  @DF-RHF Final Energy: -1875.91637206795667
    Total Energy =                      -1875.9163720679566723
  @DF-RHF Final Energy: -1875.93368418690648
    Total Energy =                      -1875.9336841869064756
  Multiplicity = 1
  @DF-RHF Final Energy: -1951.97696794541912
    Total Energy =                      -1951.9769679454191191
	 Singles Energy            =      -0.0000000000000000 [Eh]
	 Same-Spin Energy          =      -0.3116687068092749 [Eh]
	 Opposite-Spin Energy      =      -0.9074533504534563 [Eh]
	 Correlation Energy        =      -1.2191220572627313 [Eh]
	 Total Energy              =   -1953.1960900026817853 [Eh]
	 SCS Total Energy          =   -1953.1698015348997615 [Eh]
    Molecular point group: c1

    Geometry (in Angstrom), charge = 0, multiplicity = 1:

       Center              X                  Y                   Z               Mass
    ------------   -----------------  -----------------  -----------------  -----------------
         CL          -1.343966113901    -1.004760369278     1.644859235917    34.968852682000
         CL          -1.022202113901     1.202798330722    -0.197791164083    34.968852682000
         CL          -0.277580113901    -1.464732369278    -1.004716164083    34.968852682000
         CL           1.302947586099    -0.059185969278     0.956736035917    34.968852682000
         C           -0.337495513901    -0.332364569278     0.353721835917    12.000000000000
         O            2.841260386099     2.829920930722    -2.901294764083    15.994914619570
         H            2.421572686099     1.969465830722    -2.904203364083     1.007825032230
         H            3.026290586099     3.079572030722    -3.806485464083     1.007825032230

  Charge       = 0
  Multiplicity = 1
  Basis Set: AUG-CC-PVQZ
    Blend: AUG-CC-PVQZ
  Basis Set: (AUG-CC-PVQZ AUX)
    Blend: AUG-CC-PVQZ-JKFIT

    Orbital Energies [Eh]
    ---------------------

    Doubly Occupied:

       1A   -104.877776     2A   -104.877232     3A   -104.876478
       4A   -104.876386     5A    -20.561792     6A    -11.497470
       7A    -10.603513     8A    -10.602859     9A    -10.602159
      10A    -10.602062    11A     -8.070483    12A     -8.069832
      13A     -8.069128    14A     -8.069031    15A     -8.068401
      16A     -8.068397    17A     -8.067734    18A     -8.067733
      19A     -8.067027    20A     -8.067024    21A     -8.066928
      22A     -8.066925    23A     -1.348945    24A     -1.282473
      25A     -1.129055    26A     -1.128357    27A     -1.127863
      28A     -0.834590    29A     -0.724074    30A     -0.659287
      31A     -0.658850    32A     -0.658478    33A     -0.576210
      34A     -0.533000    35A     -0.532773    36A     -0.508176
      37A     -0.490290    38A     -0.489526    39A     -0.489107
      40A     -0.461759    41A     -0.461297    42A     -0.460774

  @DF-RHF Final Energy: -1951.99965208176286

   => Energetics <=

    Nuclear Repulsion Energy =            518.7407674268295068
    One-Electron Energy =               -3730.7783343656292345
    Two-Electron Energy =                1260.0379148570366397
    Total Energy =                      -1951.9996520817628607

  Dipole Moment: [D]
     X:    -0.4125      Y:    -0.9861      Z:    -1.4406     Total:     1.7938

  Basis Set: (AUG-CC-PVQZ AUX)
    Blend: AUG-CC-PVQZ-RI
	 Reference Energy          =   -1951.9996520817628607 [Eh]
	 Singles Energy            =      -0.0000000000000000 [Eh]
	 Same-Spin Energy          =      -0.3217880354402560 [Eh]
	 Opposite-Spin Energy      =      -0.9903850518887789 [Eh]
	 Correlation Energy        =      -1.3121730873290349 [Eh]
	 Total Energy              =   -1953.3118251690918896 [Eh]

	 ================> DF-SCS-MP2 Energies <==================
	-----------------------------------------------------------
	 SCS Same-Spin Scale       =       0.3333333333333333 [-]
	 SCS Opposite-Spin Scale   =       1.2000000000000000 [-]
	 SCS Same-Spin Energy      =      -0.1072626784800853 [Eh]
	 SCS Opposite-Spin Energy  =      -1.1884620622665347 [Eh]
	 SCS Correlation Energy    =      -1.2957247407466201 [Eh]
	 SCS Total Energy          =   -1953.2953768225095246 [Eh]
	-----------------------------------------------------------

*** Psi4 exiting successfully. Buy a developer a beer!
