                               Psi4 1.3.2 release

  ==> Input File <==

--------------------------------------------------------------------------
molecule {
0 1
 Cl                 -0.1579851    -0.2358107     1.5789989
 Cl                 -0.5853312     1.5314563    -0.6626172
 Cl                 -0.0039900    -1.2608089    -1.1136819
 Cl                  2.0634563     0.5020987    -0.1198940
  C                  0.3323723     0.1352885    -0.0797709
--
0 1
  O                 -3.6755327    -1.6295216     2.4427887
  H                 -3.5395682    -2.5768848     2.4410220
  H                 -3.2657727    -1.2642706     1.6583434
}
memory 15GB
set_num_threads(4)
psi4_io.set_default_path("/scratch/bdw2292/Psi4-CCl4")
set maxiter 500
set freeze_core True
set PROPERTIES_ORIGIN ["COM"]
e_dim= energy('mp2/aug-cc-pV[TQ]Z',bsse_type='cp')

psi4.print_out('CP Energy = %10.6f' % (e_dim))
clean()
--------------------------------------------------------------------------

    Molecular point group: c1
  Charge       = 0
  Multiplicity = 1
  Basis Set: AUG-CC-PVTZ
    Blend: AUG-CC-PVTZ
  Basis Set: (AUG-CC-PVTZ AUX)
    Blend: AUG-CC-PVTZ-JKFIT
  @DF-RHF Final Energy:   -76.06046041908576
    Total Energy =                        -76.0604604190857572
  Basis Set: (AUG-CC-PVTZ AUX)
    Blend: AUG-CC-PVTZ-RI
	 Reference Energy          =     -76.0604604190857572 [Eh]
	 Singles Energy            =      -0.0000000000000000 [Eh]
	 Same-Spin Energy          =      -0.0650895814416528 [Eh]
	 Opposite-Spin Energy      =      -0.2029601770961572 [Eh]
	 Correlation Energy        =      -0.2680497585378100 [Eh]
	 Total Energy              =     -76.3285101776235706 [Eh]
	 SCS Total Energy          =     -76.3257091587483671 [Eh]
    Molecular point group: c1
  Basis Set: AUG-CC-PVQZ
    Blend: AUG-CC-PVQZ
  Basis Set: (AUG-CC-PVQZ AUX)
    Blend: AUG-CC-PVQZ-JKFIT
  @DF-RHF Final Energy:   -76.06584912367715
    Total Energy =                        -76.0658491236771539
  Basis Set: (AUG-CC-PVQZ AUX)
  @DF-RHF Final Energy:   -76.06048240911413
    Total Energy =                        -76.0604824091141438
  @DF-RHF Final Energy:   -76.06585851117717
    Total Energy =                        -76.0658585111771686
  @DF-RHF Final Energy: -1875.91641711697525
    Total Energy =                      -1875.9164171169752535
  @DF-RHF Final Energy: -1875.93369499644632
    Total Energy =                      -1875.9336949964463201
  @DF-RHF Final Energy: -1875.91637441342414
    Total Energy =                      -1875.9163744134241369
  @DF-RHF Final Energy: -1875.93368448219735
    Total Energy =                      -1875.9336844821973500
  Multiplicity = 1
  @DF-RHF Final Energy: -1951.97721034213714
    Total Energy =                      -1951.9772103421371412
	 Singles Energy            =      -0.0000000000000000 [Eh]
	 Same-Spin Energy          =      -0.3120082944953364 [Eh]
	 Opposite-Spin Energy      =      -0.9079213204673695 [Eh]
	 Correlation Energy        =      -1.2199296149627059 [Eh]
	 Total Energy              =   -1953.1971399570998074 [Eh]
	 SCS Total Energy          =   -1953.1707186915298280 [Eh]
    Molecular point group: c1

    Geometry (in Angstrom), charge = 0, multiplicity = 1:

       Center              X                  Y                   Z               Mass
    ------------   -----------------  -----------------  -----------------  -----------------
         CL          -0.065948652998    -0.179680142418     1.395614299655    34.968852682000
         CL          -0.493294752998     1.587586857582    -0.846001800345    34.968852682000
         CL           0.088046447002    -1.204678342418    -1.297066500345    34.968852682000
         CL           2.155492747002     0.558229257582    -0.303278600345    34.968852682000
         C            0.424408747002     0.191419057582    -0.263155500345    12.000000000000
         O           -3.583496252998    -1.573391042418     2.259404099655    15.994914619570
         H           -3.447531752998    -2.520754242418     2.257637399655     1.007825032230
         H           -3.173736252998    -1.208140042418     1.474958799655     1.007825032230

  Charge       = 0
  Multiplicity = 1
  Basis Set: AUG-CC-PVQZ
    Blend: AUG-CC-PVQZ
  Basis Set: (AUG-CC-PVQZ AUX)
    Blend: AUG-CC-PVQZ-JKFIT

    Orbital Energies [Eh]
    ---------------------

    Doubly Occupied:

       1A   -104.881398     2A   -104.880824     3A   -104.880271
       4A   -104.880200     5A    -20.560923     6A    -11.500943
       7A    -10.607114     8A    -10.606503     9A    -10.605945
      10A    -10.605812    11A     -8.074084    12A     -8.073464
      13A     -8.072914    14A     -8.072785    15A     -8.071998
      16A     -8.071994    17A     -8.071365    18A     -8.071356
      19A     -8.070816    20A     -8.070813    21A     -8.070681
      22A     -8.070681    23A     -1.348276    24A     -1.286064
      25A     -1.132559    26A     -1.132046    27A     -1.131668
      28A     -0.838195    29A     -0.723348    30A     -0.662726
      31A     -0.662440    32A     -0.662144    33A     -0.575843
      34A     -0.536798    35A     -0.536549    36A     -0.508149
      37A     -0.493681    38A     -0.493027    39A     -0.492756
      40A     -0.465254    41A     -0.464959    42A     -0.464698

  @DF-RHF Final Energy: -1951.99986805993376

   => Energetics <=

    Nuclear Repulsion Energy =            526.9352441705758565
    One-Electron Energy =               -3746.9020869377150120
    Two-Electron Energy =                1267.9669747072052814
    Total Energy =                      -1951.9998680599337604

  Dipole Moment: [D]
     X:     1.0812      Y:    -0.8862      Z:    -1.3101     Total:     1.9159

  Basis Set: (AUG-CC-PVQZ AUX)
    Blend: AUG-CC-PVQZ-RI
	 Reference Energy          =   -1951.9998680599337604 [Eh]
	 Singles Energy            =      -0.0000000000000000 [Eh]
	 Same-Spin Energy          =      -0.3221274471948952 [Eh]
	 Opposite-Spin Energy      =      -0.9907975640759393 [Eh]
	 Correlation Energy        =      -1.3129250112708344 [Eh]
	 Total Energy              =   -1953.3127930712046236 [Eh]

	 ================> DF-SCS-MP2 Energies <==================
	-----------------------------------------------------------
	 SCS Same-Spin Scale       =       0.3333333333333333 [-]
	 SCS Opposite-Spin Scale   =       1.2000000000000000 [-]
	 SCS Same-Spin Energy      =      -0.1073758157316317 [Eh]
	 SCS Opposite-Spin Energy  =      -1.1889570768911271 [Eh]
	 SCS Correlation Energy    =      -1.2963328926227589 [Eh]
	 SCS Total Energy          =   -1953.2962009525565463 [Eh]
	-----------------------------------------------------------

*** Psi4 exiting successfully. Buy a developer a beer!
