                               Psi4 1.3.2 release

  ==> Input File <==

--------------------------------------------------------------------------
molecule {
0 1
 Cl                 -1.1871076    -0.8335049     1.5502738
 Cl                 -0.8653436     1.3740538    -0.2923766
 Cl                 -0.1207216    -1.2934769    -1.0993016
 Cl                  1.4598061     0.1120695     0.8621506
  C                 -0.1806370    -0.1611091     0.2591364
--
0 1
  O                  1.8156611     2.0146776    -1.5996266
  H                  1.3959734     1.1542226    -1.6025352
  H                  2.0006913     2.2643287    -2.5048173
}
memory 15GB
set_num_threads(4)
psi4_io.set_default_path("/scratch/bdw2292/Psi4-CCl4")
set maxiter 500
set freeze_core True
set PROPERTIES_ORIGIN ["COM"]
e_dim= energy('mp2/aug-cc-pV[TQ]Z',bsse_type='cp')

psi4.print_out('CP Energy = %10.6f' % (e_dim))
clean()
--------------------------------------------------------------------------

    Molecular point group: c1
  Charge       = 0
  Multiplicity = 1
  Basis Set: AUG-CC-PVTZ
    Blend: AUG-CC-PVTZ
  Basis Set: (AUG-CC-PVTZ AUX)
    Blend: AUG-CC-PVTZ-JKFIT
  @DF-RHF Final Energy:   -76.06045552144329
    Total Energy =                        -76.0604555214432878
  Basis Set: (AUG-CC-PVTZ AUX)
    Blend: AUG-CC-PVTZ-RI
	 Reference Energy          =     -76.0604555214432878 [Eh]
	 Singles Energy            =      -0.0000000000000000 [Eh]
	 Same-Spin Energy          =      -0.0650879860356861 [Eh]
	 Opposite-Spin Energy      =      -0.2029544220909390 [Eh]
	 Correlation Energy        =      -0.2680424081266251 [Eh]
	 Total Energy              =     -76.3284979295699060 [Eh]
	 SCS Total Energy          =     -76.3256968232976476 [Eh]
    Molecular point group: c1
  Basis Set: AUG-CC-PVQZ
    Blend: AUG-CC-PVQZ
  Basis Set: (AUG-CC-PVQZ AUX)
    Blend: AUG-CC-PVQZ-JKFIT
  @DF-RHF Final Energy:   -76.06584441412433
    Total Energy =                        -76.0658444141243280
  Basis Set: (AUG-CC-PVQZ AUX)
  @DF-RHF Final Energy:   -76.06051009760213
    Total Energy =                        -76.0605100976021333
  @DF-RHF Final Energy:   -76.06587120015736
    Total Energy =                        -76.0658712001573605
  @DF-RHF Final Energy: -1875.91652448001400
    Total Energy =                      -1875.9165244800140044
  @DF-RHF Final Energy: -1875.93371860303841
    Total Energy =                      -1875.9337186030384146
  @DF-RHF Final Energy: -1875.91637206755217
    Total Energy =                      -1875.9163720675521745
  @DF-RHF Final Energy: -1875.93368418875889
    Total Energy =                      -1875.9336841887588889
  Multiplicity = 1
  @DF-RHF Final Energy: -1951.96795037710399
    Total Energy =                      -1951.9679503771039890
	 Singles Energy            =      -0.0000000000000000 [Eh]
	 Same-Spin Energy          =      -0.3149589363206356 [Eh]
	 Opposite-Spin Energy      =      -0.9116308438370592 [Eh]
	 Correlation Energy        =      -1.2265897801576948 [Eh]
	 Total Energy              =   -1953.1945401572615992 [Eh]
	 SCS Total Energy          =   -1953.1668937018152974 [Eh]
    Molecular point group: c1

    Geometry (in Angstrom), charge = 0, multiplicity = 1:

       Center              X                  Y                   Z               Mass
    ------------   -----------------  -----------------  -----------------  -----------------
         CL          -1.218607133318    -0.900176101481     1.496834563974    34.968852682000
         CL          -0.896843133318     1.307382598519    -0.345815836026    34.968852682000
         CL          -0.152221133318    -1.360148101481    -1.152740836026    34.968852682000
         CL           1.428306566682     0.045398298519     0.808711363974    34.968852682000
         C           -0.212136533318    -0.227780301481     0.205697163974    12.000000000000
         O            1.784161566682     1.948006398519    -1.653065836026    15.994914619570
         H            1.364473866682     1.087551398519    -1.655974436026     1.007825032230
         H            1.969191766682     2.197657498519    -2.558256536026     1.007825032230

  Charge       = 0
  Multiplicity = 1
  Basis Set: AUG-CC-PVQZ
    Blend: AUG-CC-PVQZ
  Basis Set: (AUG-CC-PVQZ AUX)
    Blend: AUG-CC-PVQZ-JKFIT

    Orbital Energies [Eh]
    ---------------------

    Doubly Occupied:

       1A   -104.881584     2A   -104.876861     3A   -104.874233
       4A   -104.873148     5A    -20.556643     6A    -11.497563
       7A    -10.607423     8A    -10.602498     9A    -10.600112
      10A    -10.599150    11A     -8.074381    12A     -8.072336
      13A     -8.072304    14A     -8.069471    15A     -8.067372
      16A     -8.067367    17A     -8.067059    18A     -8.066082
      19A     -8.064953    20A     -8.064923    21A     -8.063987
      22A     -8.063948    23A     -1.347073    24A     -1.283248
      25A     -1.131842    26A     -1.128131    27A     -1.126825
      28A     -0.834846    29A     -0.726766    30A     -0.659983
      31A     -0.658433    32A     -0.657930    33A     -0.575225
      34A     -0.537137    35A     -0.531701    36A     -0.507886
      37A     -0.489968    38A     -0.489028    39A     -0.486758
      40A     -0.462703    41A     -0.461193    42A     -0.456176

  @DF-RHF Final Energy: -1951.99053695284420

   => Energetics <=

    Nuclear Repulsion Energy =            557.0343272542384057
    One-Electron Energy =               -3807.3772228939510569
    Two-Electron Energy =                1298.3523586868686834
    Total Energy =                      -1951.9905369528441952

  Dipole Moment: [D]
     X:    -0.3602      Y:    -0.7736      Z:    -1.3052     Total:     1.5594

  Basis Set: (AUG-CC-PVQZ AUX)
    Blend: AUG-CC-PVQZ-RI
	 Reference Energy          =   -1951.9905369528441952 [Eh]
	 Singles Energy            =      -0.0000000000000000 [Eh]
	 Same-Spin Energy          =      -0.3251256880423989 [Eh]
	 Opposite-Spin Energy      =      -0.9943985763217087 [Eh]
	 Correlation Energy        =      -1.3195242643641076 [Eh]
	 Total Energy              =   -1953.3100612172083856 [Eh]

	 ================> DF-SCS-MP2 Energies <==================
	-----------------------------------------------------------
	 SCS Same-Spin Scale       =       0.3333333333333333 [-]
	 SCS Opposite-Spin Scale   =       1.2000000000000000 [-]
	 SCS Same-Spin Energy      =      -0.1083752293474663 [Eh]
	 SCS Opposite-Spin Energy  =      -1.1932782915860505 [Eh]
	 SCS Correlation Energy    =      -1.3016535209335167 [Eh]
	 SCS Total Energy          =   -1953.2921904737777368 [Eh]
	-----------------------------------------------------------

*** Psi4 exiting successfully. Buy a developer a beer!
