                               Psi4 1.3.2 release

  ==> Input File <==

--------------------------------------------------------------------------
molecule {
0 1
 Cl                 -1.2107509    -0.8798622     2.0388667
 Cl                 -1.2016718     1.2595512     0.0928711
 Cl                 -0.4324728    -1.4106835    -0.6944078
 Cl                  1.2946898     0.1437838     1.0222648
  C                 -0.3884123    -0.2223763     0.6163801
--
0 1
 Cl                  1.7427654     1.3018022    -2.9345618
 Cl                  1.9031990     3.2946497    -5.0181252
 Cl                  2.5490509     0.5379456    -5.6011549
 Cl                  4.3195937     2.1193641    -3.9518916
  C                  2.6288961     1.8134439    -4.3769258
}
memory 15GB
set_num_threads(4)
psi4_io.set_default_path("/scratch/bdw2292/Psi4-CCl4")
set maxiter 500
set freeze_core True
set PROPERTIES_ORIGIN ["COM"]
e_dim= energy('mp2/aug-cc-pV[TQ]Z',bsse_type='cp')

psi4.print_out('CP Energy = %10.6f' % (e_dim))
clean()
--------------------------------------------------------------------------

    Molecular point group: c1
  Charge       = 0
  Multiplicity = 1
  Basis Set: AUG-CC-PVTZ
    Blend: AUG-CC-PVTZ
  Basis Set: (AUG-CC-PVTZ AUX)
    Blend: AUG-CC-PVTZ-JKFIT
  @DF-RHF Final Energy: -1875.91638493906976
    Total Energy =                      -1875.9163849390697578
  Basis Set: (AUG-CC-PVTZ AUX)
    Blend: AUG-CC-PVTZ-RI
	 Reference Energy          =   -1875.9163849390697578 [Eh]
	 Singles Energy            =      -0.0000000000000000 [Eh]
	 Same-Spin Energy          =      -0.2463768261471915 [Eh]
	 Opposite-Spin Energy      =      -0.7042185859573150 [Eh]
	 Correlation Energy        =      -0.9505954121045065 [Eh]
	 Total Energy              =   -1876.8669803511743339 [Eh]
	 SCS Total Energy          =   -1876.8435728509343789 [Eh]
    Molecular point group: c1
  Basis Set: AUG-CC-PVQZ
    Blend: AUG-CC-PVQZ
  Basis Set: (AUG-CC-PVQZ AUX)
    Blend: AUG-CC-PVQZ-JKFIT
  @DF-RHF Final Energy: -1875.93369578871898
    Total Energy =                      -1875.9336957887189783
  Basis Set: (AUG-CC-PVQZ AUX)
  @DF-RHF Final Energy: -1875.91643757713200
    Total Energy =                      -1875.9164375771320010
  @DF-RHF Final Energy: -1875.93370563575672
    Total Energy =                      -1875.9337056357567235
  @DF-RHF Final Energy: -1875.91643600318048
    Total Energy =                      -1875.9164360031804790
  @DF-RHF Final Energy: -1875.93370282522073
    Total Energy =                      -1875.9337028252207347
  @DF-RHF Final Energy: -1875.91637816897924
    Total Energy =                      -1875.9163781689792359
  @DF-RHF Final Energy: -1875.93368617344549
    Total Energy =                      -1875.9336861734454942
  Multiplicity = 1
  @DF-RHF Final Energy: -3751.83240104695278
    Total Energy =                      -3751.8324010469527821
	 Singles Energy            =      -0.0000000000000000 [Eh]
	 Same-Spin Energy          =      -0.4942607508532853 [Eh]
	 Opposite-Spin Energy      =      -1.4103167021962941 [Eh]
	 Correlation Energy        =      -1.9045774530495794 [Eh]
	 Total Energy              =   -3753.7369785000023512 [Eh]
	 SCS Total Energy          =   -3753.6895346732062535 [Eh]
    Molecular point group: c1

    Geometry (in Angstrom), charge = 0, multiplicity = 1:

       Center              X                  Y                   Z               Mass
    ------------   -----------------  -----------------  -----------------  -----------------
         CL          -2.331276936270    -1.675658539104     3.919594966988    34.968852682000
         CL          -2.322197836270     0.463754860896     1.973599366988    34.968852682000
         CL          -1.552998836270    -2.206479839104     1.186320466988    34.968852682000
         CL           0.174163763730    -0.652012539104     2.902993066988    34.968852682000
         C           -1.508938336270    -1.018172639104     2.497108366988    12.000000000000
         CL           0.622239363730     0.506005860896    -1.053833533012    34.968852682000
         CL           0.782672963730     2.498853360896    -3.137396933012    34.968852682000
         CL           1.428524863730    -0.257850739104    -3.720426633012    34.968852682000
         CL           3.199067663730     1.323567760896    -2.071163333012    34.968852682000
         C            1.508370063730     1.017647560896    -2.496197533012    12.000000000000

  Charge       = 0
  Multiplicity = 1
  Basis Set: AUG-CC-PVQZ
    Blend: AUG-CC-PVQZ
  Basis Set: (AUG-CC-PVQZ AUX)
    Blend: AUG-CC-PVQZ-JKFIT

    Orbital Energies [Eh]
    ---------------------

    Doubly Occupied:

       1A   -104.877511     2A   -104.877439     3A   -104.877345
       4A   -104.877330     5A   -104.875259     6A   -104.875221
       7A   -104.875198     8A   -104.874251     9A    -11.498030
      10A    -11.495549    11A    -10.603202    12A    -10.603133
      13A    -10.603037    14A    -10.602978    15A    -10.600941
      16A    -10.600900    17A    -10.600880    18A    -10.599964
      19A     -8.070170    20A     -8.070101    21A     -8.070005
      22A     -8.069951    23A     -8.068075    24A     -8.068072
      25A     -8.068006    26A     -8.068002    27A     -8.067912
      28A     -8.067909    29A     -8.067906    30A     -8.067871
      31A     -8.067854    32A     -8.067853    33A     -8.067853
      34A     -8.066932    35A     -8.065819    36A     -8.065818
      37A     -8.065779    38A     -8.065778    39A     -8.065761
      40A     -8.065760    41A     -8.064819    42A     -8.064819
      43A     -1.282795    44A     -1.280431    45A     -1.128964
      46A     -1.128882    47A     -1.128803    48A     -1.126680
      49A     -1.126638    50A     -1.126053    51A     -0.835182
      52A     -0.832615    53A     -0.660421    54A     -0.659178
      55A     -0.659148    56A     -0.657027    57A     -0.657006
      58A     -0.655924    59A     -0.533898    60A     -0.533785
      61A     -0.530559    62A     -0.530505    63A     -0.492850
      64A     -0.489941    65A     -0.489925    66A     -0.487741
      67A     -0.487709    68A     -0.485227    69A     -0.462620
      70A     -0.462515    71A     -0.461649    72A     -0.459683
      73A     -0.458486    74A     -0.458358

  @DF-RHF Final Energy: -3751.86693549469510

   => Energetics <=

    Nuclear Repulsion Energy =           1348.6676364542304327
    One-Electron Energy =               -7874.6527773940306361
    Two-Electron Energy =                2774.1182054451046497
    Total Energy =                      -3751.8669354946950989

  Dipole Moment: [D]
     X:    -0.0542      Y:    -0.0429      Z:     0.0911     Total:     0.1144

  Basis Set: (AUG-CC-PVQZ AUX)
    Blend: AUG-CC-PVQZ-RI
	 Reference Energy          =   -3751.8669354946950989 [Eh]
	 Singles Energy            =      -0.0000000000000000 [Eh]
	 Same-Spin Energy          =      -0.5103685148971090 [Eh]
	 Opposite-Spin Energy      =      -1.5450495088581020 [Eh]
	 Correlation Energy        =      -2.0554180237552111 [Eh]
	 Total Energy              =   -3753.9223535184501088 [Eh]

	 ================> DF-SCS-MP2 Energies <==================
	-----------------------------------------------------------
	 SCS Same-Spin Scale       =       0.3333333333333333 [-]
	 SCS Opposite-Spin Scale   =       1.2000000000000000 [-]
	 SCS Same-Spin Energy      =      -0.1701228382990363 [Eh]
	 SCS Opposite-Spin Energy  =      -1.8540594106297223 [Eh]
	 SCS Correlation Energy    =      -2.0241822489287586 [Eh]
	 SCS Total Energy          =   -3753.8911177436239086 [Eh]
	-----------------------------------------------------------

*** Psi4 exiting successfully. Buy a developer a beer!
