                               Psi4 1.3.2 release

  ==> Input File <==

--------------------------------------------------------------------------
molecule {
0 1
 Cl                 -1.1871076    -0.8335049     1.5502738
 Cl                 -0.8653436     1.3740538    -0.2923766
 Cl                 -0.1207216    -1.2934769    -1.0993016
 Cl                  1.4598061     0.1120695     0.8621506
  C                 -0.1806370    -0.1611091     0.2591364
--
0 1
  O                  2.2098137     2.3435105    -2.0650444
  H                  1.7901260     1.4830555    -2.0679530
  H                  2.3948439     2.5931616    -2.9702352
}
memory 15GB
set_num_threads(4)
psi4_io.set_default_path("/scratch/bdw2292/Psi4-CCl4")
set maxiter 500
set freeze_core True
set PROPERTIES_ORIGIN ["COM"]
e_dim= energy('mp2/aug-cc-pV[TQ]Z',bsse_type='cp')

psi4.print_out('CP Energy = %10.6f' % (e_dim))
clean()
--------------------------------------------------------------------------

    Molecular point group: c1
  Charge       = 0
  Multiplicity = 1
  Basis Set: AUG-CC-PVTZ
    Blend: AUG-CC-PVTZ
  Basis Set: (AUG-CC-PVTZ AUX)
    Blend: AUG-CC-PVTZ-JKFIT
  @DF-RHF Final Energy:   -76.06045551834342
    Total Energy =                        -76.0604555183434030
  Basis Set: (AUG-CC-PVTZ AUX)
    Blend: AUG-CC-PVTZ-RI
	 Reference Energy          =     -76.0604555183434172 [Eh]
	 Singles Energy            =      -0.0000000000000000 [Eh]
	 Same-Spin Energy          =      -0.0650879869142407 [Eh]
	 Opposite-Spin Energy      =      -0.2029544250570549 [Eh]
	 Correlation Energy        =      -0.2680424119712956 [Eh]
	 Total Energy              =     -76.3284979303147111 [Eh]
	 SCS Total Energy          =     -76.3256968240499702 [Eh]
    Molecular point group: c1
  Basis Set: AUG-CC-PVQZ
    Blend: AUG-CC-PVQZ
  Basis Set: (AUG-CC-PVQZ AUX)
    Blend: AUG-CC-PVQZ-JKFIT
  @DF-RHF Final Energy:   -76.06584441078905
    Total Energy =                        -76.0658444107890546
  Basis Set: (AUG-CC-PVQZ AUX)
  @DF-RHF Final Energy:   -76.06048011047025
    Total Energy =                        -76.0604801104702517
  @DF-RHF Final Energy:   -76.06585510932575
    Total Energy =                        -76.0658551093257529
  @DF-RHF Final Energy: -1875.91645887066989
    Total Energy =                      -1875.9164588706698851
  @DF-RHF Final Energy: -1875.93370398692605
    Total Energy =                      -1875.9337039869260479
  @DF-RHF Final Energy: -1875.91637206809742
    Total Energy =                      -1875.9163720680974166
  @DF-RHF Final Energy: -1875.93368418792784
    Total Energy =                      -1875.9336841879278381
  Multiplicity = 1
  @DF-RHF Final Energy: -1951.97602425408149
    Total Energy =                      -1951.9760242540814943
	 Singles Energy            =      -0.0000000000000000 [Eh]
	 Same-Spin Energy          =      -0.3127154044397543 [Eh]
	 Opposite-Spin Energy      =      -0.9088309522158592 [Eh]
	 Correlation Energy        =      -1.2215463566556135 [Eh]
	 Total Energy              =   -1953.1975706107371025 [Eh]
	 SCS Total Energy          =   -1953.1708598648870066 [Eh]
    Molecular point group: c1

    Geometry (in Angstrom), charge = 0, multiplicity = 1:

       Center              X                  Y                   Z               Mass
    ------------   -----------------  -----------------  -----------------  -----------------
         CL          -1.260393460179    -0.935037520744     1.546176114813    34.968852682000
         CL          -0.938629460179     1.272521179256    -0.296474285187    34.968852682000
         CL          -0.194007460179    -1.395009520744    -1.103399285187    34.968852682000
         CL           1.386520239821     0.010536879256     0.858052914813    34.968852682000
         C           -0.253922860179    -0.262641720744     0.255038714813    12.000000000000
         O            2.136527839821     2.241977879256    -2.069142085187    15.994914619570
         H            1.716840139821     1.381522879256    -2.072050685187     1.007825032230
         H            2.321558039821     2.491628979256    -2.974332885187     1.007825032230

  Charge       = 0
  Multiplicity = 1
  Basis Set: AUG-CC-PVQZ
    Blend: AUG-CC-PVQZ
  Basis Set: (AUG-CC-PVQZ AUX)
    Blend: AUG-CC-PVQZ-JKFIT

    Orbital Energies [Eh]
    ---------------------

    Doubly Occupied:

       1A   -104.879980     2A   -104.877506     3A   -104.876325
       4A   -104.876157     5A    -20.559747     6A    -11.497931
       7A    -10.605752     8A    -10.603134     9A    -10.602008
      10A    -10.601863    11A     -8.072718    12A     -8.070652
      13A     -8.070639    14A     -8.070108    15A     -8.068972
      16A     -8.068826    17A     -8.068009    18A     -8.068007
      19A     -8.066864    20A     -8.066852    21A     -8.066719
      22A     -8.066707    23A     -1.347288    24A     -1.283251
      25A     -1.130697    26A     -1.128704    27A     -1.127899
      28A     -0.835134    29A     -0.723002    30A     -0.660263
      31A     -0.659557    32A     -0.658641    33A     -0.574690
      34A     -0.534187    35A     -0.533288    36A     -0.506918
      37A     -0.490720    38A     -0.490187    39A     -0.489350
      40A     -0.462833    41A     -0.461905    42A     -0.460502

  @DF-RHF Final Energy: -1951.99866712682160

   => Energetics <=

    Nuclear Repulsion Energy =            540.6228949926693303
    One-Electron Energy =               -3774.5141470916610160
    Two-Electron Energy =                1281.8925849721699706
    Total Energy =                      -1951.9986671268216014

  Dipole Moment: [D]
     X:    -0.4151      Y:    -0.9033      Z:    -1.3380     Total:     1.6669

  Basis Set: (AUG-CC-PVQZ AUX)
    Blend: AUG-CC-PVQZ-RI
	 Reference Energy          =   -1951.9986671268216014 [Eh]
	 Singles Energy            =      -0.0000000000000000 [Eh]
	 Same-Spin Energy          =      -0.3228368268402509 [Eh]
	 Opposite-Spin Energy      =      -0.9916552229699814 [Eh]
	 Correlation Energy        =      -1.3144920498102324 [Eh]
	 Total Energy              =   -1953.3131591766318707 [Eh]

	 ================> DF-SCS-MP2 Energies <==================
	-----------------------------------------------------------
	 SCS Same-Spin Scale       =       0.3333333333333333 [-]
	 SCS Opposite-Spin Scale   =       1.2000000000000000 [-]
	 SCS Same-Spin Energy      =      -0.1076122756134170 [Eh]
	 SCS Opposite-Spin Energy  =      -1.1899862675639776 [Eh]
	 SCS Correlation Energy    =      -1.2975985431773946 [Eh]
	 SCS Total Energy          =   -1953.2962656699990021 [Eh]
	-----------------------------------------------------------

*** Psi4 exiting successfully. Buy a developer a beer!
