                               Psi4 1.3.2 release

  ==> Input File <==

--------------------------------------------------------------------------
molecule {
0 1
 Cl                 -1.3216509    -1.2809349     0.3222521
 Cl                 -0.8136453     1.3984708    -0.6254683
 Cl                  0.5982673    -0.8387328    -1.7959308
 Cl                  1.1940644     0.0026420     0.9073311
  C                 -0.0850511    -0.1807108    -0.3019604
--
0 1
  O                 -1.2026561     0.2910206     3.0158987
  H                 -1.2621591    -0.6392268     3.2326202
  H                 -0.6510082     0.3839507     2.2391313
}
memory 15GB
set_num_threads(4)
psi4_io.set_default_path("/scratch/bdw2292/Psi4-CCl4")
set maxiter 500
set freeze_core True
set PROPERTIES_ORIGIN ["COM"]
e_dim= energy('mp2/aug-cc-pV[TQ]Z',bsse_type='cp')

psi4.print_out('CP Energy = %10.6f' % (e_dim))
clean()
--------------------------------------------------------------------------

    Molecular point group: c1
  Charge       = 0
  Multiplicity = 1
  Basis Set: AUG-CC-PVTZ
    Blend: AUG-CC-PVTZ
  Basis Set: (AUG-CC-PVTZ AUX)
    Blend: AUG-CC-PVTZ-JKFIT
  @DF-RHF Final Energy:   -76.06048004357231
    Total Energy =                        -76.0604800435723121
  Basis Set: (AUG-CC-PVTZ AUX)
    Blend: AUG-CC-PVTZ-RI
	 Reference Energy          =     -76.0604800435723121 [Eh]
	 Singles Energy            =      -0.0000000000000000 [Eh]
	 Same-Spin Energy          =      -0.0650883045902914 [Eh]
	 Opposite-Spin Energy      =      -0.2029563678189785 [Eh]
	 Correlation Energy        =      -0.2680446724092698 [Eh]
	 Total Energy              =     -76.3285247159815867 [Eh]
	 SCS Total Energy          =     -76.3257237864851845 [Eh]
    Molecular point group: c1
  Basis Set: AUG-CC-PVQZ
    Blend: AUG-CC-PVQZ
  Basis Set: (AUG-CC-PVQZ AUX)
    Blend: AUG-CC-PVQZ-JKFIT
  @DF-RHF Final Energy:   -76.06586944565761
    Total Energy =                        -76.0658694456576114
  Basis Set: (AUG-CC-PVQZ AUX)
  @DF-RHF Final Energy:   -76.06055987276879
    Total Energy =                        -76.0605598727687777
  @DF-RHF Final Energy:   -76.06589940876290
    Total Energy =                        -76.0658994087629026
  @DF-RHF Final Energy: -1875.91653034044225
    Total Energy =                      -1875.9165303404422502
  @DF-RHF Final Energy: -1875.93372247418188
    Total Energy =                      -1875.9337224741818773
  @DF-RHF Final Energy: -1875.91637473171340
    Total Energy =                      -1875.9163747317134039
  @DF-RHF Final Energy: -1875.93368661184581
    Total Energy =                      -1875.9336866118458147
  Multiplicity = 1
  @DF-RHF Final Energy: -1951.96644921750817
    Total Energy =                      -1951.9664492175081705
	 Singles Energy            =      -0.0000000000000000 [Eh]
	 Same-Spin Energy          =      -0.3152929627501249 [Eh]
	 Opposite-Spin Energy      =      -0.9120757614916524 [Eh]
	 Correlation Energy        =      -1.2273687242417772 [Eh]
	 Total Energy              =   -1953.1938179417500123 [Eh]
	 SCS Total Energy          =   -1953.1660377855482693 [Eh]
    Molecular point group: c1

    Geometry (in Angstrom), charge = 0, multiplicity = 1:

       Center              X                  Y                   Z               Mass
    ------------   -----------------  -----------------  -----------------  -----------------
         CL          -1.120467678579    -1.146150413048     0.272491365555    34.968852682000
         CL          -0.612462078579     1.533255286952    -0.675229034445    34.968852682000
         CL           0.799450521421    -0.703948313048    -1.845691534445    34.968852682000
         CL           1.395247621421     0.137426486952     0.857570365555    34.968852682000
         C            0.116132121421    -0.045926313048    -0.351721134445    12.000000000000
         O           -1.001472878579     0.425805086952     2.966137965555    15.994914619570
         H           -1.060975878579    -0.504442313048     3.182859465555     1.007825032230
         H           -0.449824978579     0.518735186952     2.189370565555     1.007825032230

  Charge       = 0
  Multiplicity = 1
  Basis Set: AUG-CC-PVQZ
    Blend: AUG-CC-PVQZ
  Basis Set: (AUG-CC-PVQZ AUX)
    Blend: AUG-CC-PVQZ-JKFIT

    Orbital Energies [Eh]
    ---------------------

    Doubly Occupied:

       1A   -104.889635     2A   -104.884551     3A   -104.884076
       4A   -104.883684     5A    -20.548695     6A    -11.506371
       7A    -10.615779     8A    -10.610138     9A    -10.609756
      10A    -10.609733    11A     -8.082690    12A     -8.080684
      13A     -8.080600    14A     -8.077109    15A     -8.076699
      16A     -8.076694    17A     -8.074994    18A     -8.074991
      19A     -8.074620    20A     -8.074579    21A     -8.074579
      22A     -8.074566    23A     -1.340898    24A     -1.292208
      25A     -1.141499    26A     -1.136987    27A     -1.135921
      28A     -0.843854    29A     -0.720512    30A     -0.669734
      31A     -0.667295    32A     -0.666582    33A     -0.577649
      34A     -0.544090    35A     -0.537658    36A     -0.504561
      37A     -0.498251    38A     -0.497995    39A     -0.491844
      40A     -0.470526    41A     -0.469769    42A     -0.466223

  @DF-RHF Final Energy: -1951.98902630904036

   => Energetics <=

    Nuclear Repulsion Energy =            557.7054969060828853
    One-Electron Energy =               -3808.1104889131252094
    Two-Electron Energy =                1298.4159656980020827
    Total Energy =                      -1951.9890263090403550

  Dipole Moment: [D]
     X:     0.8859      Y:    -1.4043      Z:    -1.3568     Total:     2.1442

  Basis Set: (AUG-CC-PVQZ AUX)
    Blend: AUG-CC-PVQZ-RI
	 Reference Energy          =   -1951.9890263090403550 [Eh]
	 Singles Energy            =      -0.0000000000000000 [Eh]
	 Same-Spin Energy          =      -0.3254522274757762 [Eh]
	 Opposite-Spin Energy      =      -0.9948084435059473 [Eh]
	 Correlation Energy        =      -1.3202606709817235 [Eh]
	 Total Energy              =   -1953.3092869800220797 [Eh]

	 ================> DF-SCS-MP2 Energies <==================
	-----------------------------------------------------------
	 SCS Same-Spin Scale       =       0.3333333333333333 [-]
	 SCS Opposite-Spin Scale   =       1.2000000000000000 [-]
	 SCS Same-Spin Energy      =      -0.1084840758252587 [Eh]
	 SCS Opposite-Spin Energy  =      -1.1937701322071368 [Eh]
	 SCS Correlation Energy    =      -1.3022542080323956 [Eh]
	 SCS Total Energy          =   -1953.2912805170726642 [Eh]
	-----------------------------------------------------------

*** Psi4 exiting successfully. Buy a developer a beer!
