                               Psi4 1.3.2 release

  ==> Input File <==

--------------------------------------------------------------------------
molecule {
0 1
 Cl                 -1.3216509    -1.2809349     0.3222521
 Cl                 -0.8136453     1.3984708    -0.6254683
 Cl                  0.5982673    -0.8387328    -1.7959308
 Cl                  1.1940644     0.0026420     0.9073311
  C                 -0.0850511    -0.1807108    -0.3019604
--
0 1
  O                 -1.1877831     0.4514476     3.7434907
  H                 -1.2472861    -0.4787998     3.9602123
  H                 -0.6361352     0.5443777     2.9667233
}
memory 15GB
set_num_threads(4)
psi4_io.set_default_path("/scratch/bdw2292/Psi4-CCl4")
set maxiter 500
set freeze_core True
set PROPERTIES_ORIGIN ["COM"]
e_dim= energy('mp2/aug-cc-pV[TQ]Z',bsse_type='cp')

psi4.print_out('CP Energy = %10.6f' % (e_dim))
clean()
--------------------------------------------------------------------------

    Molecular point group: c1
  Charge       = 0
  Multiplicity = 1
  Basis Set: AUG-CC-PVTZ
    Blend: AUG-CC-PVTZ
  Basis Set: (AUG-CC-PVTZ AUX)
    Blend: AUG-CC-PVTZ-JKFIT
  @DF-RHF Final Energy:   -76.06048004215613
    Total Energy =                        -76.0604800421561293
  Basis Set: (AUG-CC-PVTZ AUX)
    Blend: AUG-CC-PVTZ-RI
	 Reference Energy          =     -76.0604800421561293 [Eh]
	 Singles Energy            =      -0.0000000000000000 [Eh]
	 Same-Spin Energy          =      -0.0650883047424403 [Eh]
	 Opposite-Spin Energy      =      -0.2029563683035745 [Eh]
	 Correlation Energy        =      -0.2680446730460148 [Eh]
	 Total Energy              =     -76.3285247152021498 [Eh]
	 SCS Total Energy          =     -76.3257237857012285 [Eh]
    Molecular point group: c1
  Basis Set: AUG-CC-PVQZ
    Blend: AUG-CC-PVQZ
  Basis Set: (AUG-CC-PVQZ AUX)
    Blend: AUG-CC-PVQZ-JKFIT
  @DF-RHF Final Energy:   -76.06586944415685
    Total Energy =                        -76.0658694441568457
  Basis Set: (AUG-CC-PVQZ AUX)
  @DF-RHF Final Energy:   -76.06052102594431
    Total Energy =                        -76.0605210259443112
  @DF-RHF Final Energy:   -76.06588598513689
    Total Energy =                        -76.0658859851368732
  @DF-RHF Final Energy: -1875.91646766735016
    Total Energy =                      -1875.9164676673501617
  @DF-RHF Final Energy: -1875.93370756467607
    Total Energy =                      -1875.9337075646760695
  @DF-RHF Final Energy: -1875.91637473060632
    Total Energy =                      -1875.9163747306063215
  @DF-RHF Final Energy: -1875.93368661137742
    Total Energy =                      -1875.9336866113774249
  Multiplicity = 1
  @DF-RHF Final Energy: -1951.97631374684261
    Total Energy =                      -1951.9763137468426066
	 Singles Energy            =      -0.0000000000000000 [Eh]
	 Same-Spin Energy          =      -0.3128224635958270 [Eh]
	 Opposite-Spin Energy      =      -0.9090176897876290 [Eh]
	 Correlation Energy        =      -1.2218401533834560 [Eh]
	 Total Energy              =   -1953.1981539002260888 [Eh]
	 SCS Total Energy          =   -1953.1714091291196382 [Eh]
    Molecular point group: c1

    Geometry (in Angstrom), charge = 0, multiplicity = 1:

       Center              X                  Y                   Z               Mass
    ------------   -----------------  -----------------  -----------------  -----------------
         CL          -1.122044448691    -1.163158178719     0.195355257947    34.968852682000
         CL          -0.614038848691     1.516247521281    -0.752365142053    34.968852682000
         CL           0.797873751309    -0.720956078719    -1.922827642053    34.968852682000
         CL           1.393670851309     0.120418721281     0.780434257947    34.968852682000
         C            0.114555351309    -0.062934078719    -0.428857242053    12.000000000000
         O           -0.988176648691     0.569224321281     3.616593857947    15.994914619570
         H           -1.047679648691    -0.361023078719     3.833315457947     1.007825032230
         H           -0.436528748691     0.662154421281     2.839826457947     1.007825032230

  Charge       = 0
  Multiplicity = 1
  Basis Set: AUG-CC-PVQZ
    Blend: AUG-CC-PVQZ
  Basis Set: (AUG-CC-PVQZ AUX)
    Blend: AUG-CC-PVQZ-JKFIT

    Orbital Energies [Eh]
    ---------------------

    Doubly Occupied:

       1A   -104.887476     2A   -104.883681     3A   -104.883376
       4A   -104.882635     5A    -20.556331     6A    -11.504606
       7A    -10.613285     8A    -10.609418     9A    -10.608970
      10A    -10.608281    11A     -8.080242    12A     -8.078191
      13A     -8.078163    14A     -8.076384    15A     -8.075942
      16A     -8.075249    17A     -8.074287    18A     -8.074278
      19A     -8.073833    20A     -8.073830    21A     -8.073134
      22A     -8.073129    23A     -1.344357    24A     -1.289979
      25A     -1.138050    26A     -1.135247    27A     -1.134381
      28A     -0.841932    29A     -0.719874    30A     -0.667007
      31A     -0.666189    32A     -0.665489    33A     -0.573759
      34A     -0.540441    35A     -0.539882    36A     -0.504499
      37A     -0.496819    38A     -0.496553    39A     -0.496133
      40A     -0.469729    41A     -0.468731    42A     -0.467235

  @DF-RHF Final Energy: -1951.99894616778738

   => Energetics <=

    Nuclear Repulsion Energy =            540.7204358100740365
    One-Electron Energy =               -3774.2367536483302501
    Two-Electron Energy =                1281.5173716704689468
    Total Energy =                      -1951.9989461677873805

  Dipole Moment: [D]
     X:     0.8361      Y:    -1.4281      Z:    -1.3105     Total:     2.1110

  Basis Set: (AUG-CC-PVQZ AUX)
    Blend: AUG-CC-PVQZ-RI
	 Reference Energy          =   -1951.9989461677873805 [Eh]
	 Singles Energy            =      -0.0000000000000000 [Eh]
	 Same-Spin Energy          =      -0.3229344113017860 [Eh]
	 Opposite-Spin Energy      =      -0.9917747134676483 [Eh]
	 Correlation Energy        =      -1.3147091247694345 [Eh]
	 Total Energy              =   -1953.3136552925568594 [Eh]

	 ================> DF-SCS-MP2 Energies <==================
	-----------------------------------------------------------
	 SCS Same-Spin Scale       =       0.3333333333333333 [-]
	 SCS Opposite-Spin Scale   =       1.2000000000000000 [-]
	 SCS Same-Spin Energy      =      -0.1076448037672620 [Eh]
	 SCS Opposite-Spin Energy  =      -1.1901296561611781 [Eh]
	 SCS Correlation Energy    =      -1.2977744599284400 [Eh]
	 SCS Total Energy          =   -1953.2967206277157857 [Eh]
	-----------------------------------------------------------

*** Psi4 exiting successfully. Buy a developer a beer!
