                               Psi4 1.3.2 release

  ==> Input File <==

--------------------------------------------------------------------------
molecule {
0 1
 Cl                 -1.1871076    -0.8335049     1.5502738
 Cl                 -0.8653436     1.3740538    -0.2923766
 Cl                 -0.1207216    -1.2934769    -1.0993016
 Cl                  1.4598061     0.1120695     0.8621506
  C                 -0.1806370    -0.1611091     0.2591364
--
0 1
  O                  2.0127374     2.1790941    -1.8323355
  H                  1.5930497     1.3186390    -1.8352441
  H                  2.1977676     2.4287452    -2.7375262
}
memory 15GB
set_num_threads(4)
psi4_io.set_default_path("/scratch/bdw2292/Psi4-CCl4")
set maxiter 500
set freeze_core True
set PROPERTIES_ORIGIN ["COM"]
e_dim= energy('mp2/aug-cc-pV[TQ]Z',bsse_type='cp')

psi4.print_out('CP Energy = %10.6f' % (e_dim))
clean()
--------------------------------------------------------------------------

    Molecular point group: c1
  Charge       = 0
  Multiplicity = 1
  Basis Set: AUG-CC-PVTZ
    Blend: AUG-CC-PVTZ
  Basis Set: (AUG-CC-PVTZ AUX)
    Blend: AUG-CC-PVTZ-JKFIT
  @DF-RHF Final Energy:   -76.06045551820294
    Total Energy =                        -76.0604555182029287
  Basis Set: (AUG-CC-PVTZ AUX)
    Blend: AUG-CC-PVTZ-RI
	 Reference Energy          =     -76.0604555182029429 [Eh]
	 Singles Energy            =      -0.0000000000000000 [Eh]
	 Same-Spin Energy          =      -0.0650879868517547 [Eh]
	 Opposite-Spin Energy      =      -0.2029544248369557 [Eh]
	 Correlation Energy        =      -0.2680424116887105 [Eh]
	 Total Energy              =     -76.3284979298916539 [Eh]
	 SCS Total Energy          =     -76.3256968236245399 [Eh]
    Molecular point group: c1
  Basis Set: AUG-CC-PVQZ
    Blend: AUG-CC-PVQZ
  Basis Set: (AUG-CC-PVQZ AUX)
    Blend: AUG-CC-PVQZ-JKFIT
  @DF-RHF Final Energy:   -76.06584441066603
    Total Energy =                        -76.0658444106660454
  Basis Set: (AUG-CC-PVQZ AUX)
  @DF-RHF Final Energy:   -76.06048946884786
    Total Energy =                        -76.0604894688478765
  @DF-RHF Final Energy:   -76.06586280430933
    Total Energy =                        -76.0658628043093188
  @DF-RHF Final Energy: -1875.91648383446068
    Total Energy =                      -1875.9164838344606778
  @DF-RHF Final Energy: -1875.93371028516503
    Total Energy =                      -1875.9337102851650343
  @DF-RHF Final Energy: -1875.91637206777750
    Total Energy =                      -1875.9163720677775018
  @DF-RHF Final Energy: -1875.93368418765817
    Total Energy =                      -1875.9336841876581730
  Multiplicity = 1
  @DF-RHF Final Energy: -1951.97389276393142
    Total Energy =                      -1951.9738927639314170
	 Singles Energy            =      -0.0000000000000000 [Eh]
	 Same-Spin Energy          =      -0.3135483222990787 [Eh]
	 Opposite-Spin Energy      =      -0.9098917391191947 [Eh]
	 Correlation Energy        =      -1.2234400614182734 [Eh]
	 Total Energy              =   -1953.1973328253498039 [Eh]
	 SCS Total Energy          =   -1953.1702789583075628 [Eh]
    Molecular point group: c1

    Geometry (in Angstrom), charge = 0, multiplicity = 1:

       Center              X                  Y                   Z               Mass
    ------------   -----------------  -----------------  -----------------  -----------------
         CL          -1.239500296749    -0.917606815820     1.521505339097    34.968852682000
         CL          -0.917736296749     1.289951884180    -0.321145060903    34.968852682000
         CL          -0.173114296749    -1.377578815820    -1.128070060903    34.968852682000
         CL           1.407413403251     0.027967584180     0.833382139097    34.968852682000
         C           -0.233029696749    -0.245211015820     0.230367939097    12.000000000000
         O            1.960344703251     2.094992184180    -1.861103960903    15.994914619570
         H            1.540657003251     1.234537084180    -1.864012560903     1.007825032230
         H            2.145374903251     2.344643284180    -2.766294660903     1.007825032230

  Charge       = 0
  Multiplicity = 1
  Basis Set: AUG-CC-PVQZ
    Blend: AUG-CC-PVQZ
  Basis Set: (AUG-CC-PVQZ AUX)
    Blend: AUG-CC-PVQZ-JKFIT

    Orbital Energies [Eh]
    ---------------------

    Doubly Occupied:

       1A   -104.880760     2A   -104.877323     3A   -104.875720
       4A   -104.875231     5A    -20.558538     6A    -11.497870
       7A    -10.606556     8A    -10.602955     9A    -10.601453
      10A    -10.601019    11A     -8.073519    12A     -8.071462
      13A     -8.071441    14A     -8.069929    15A     -8.068412
      16A     -8.067974    17A     -8.067830    18A     -8.067827
      19A     -8.066303    20A     -8.066286    21A     -8.065868
      22A     -8.065848    23A     -1.346838    24A     -1.283355
      25A     -1.131261    26A     -1.128553    27A     -1.127560
      28A     -0.835105    29A     -0.723685    30A     -0.660274
      31A     -0.659474    32A     -0.658431    33A     -0.574450
      34A     -0.535022    35A     -0.532976    36A     -0.506984
      37A     -0.490265    38A     -0.489991    39A     -0.488843
      40A     -0.462958    41A     -0.461755    42A     -0.459429

  @DF-RHF Final Energy: -1951.99652320483597

   => Energetics <=

    Nuclear Repulsion Energy =            548.2204219252648727
    One-Electron Energy =               -3789.7192263814126818
    Two-Electron Energy =                1289.5022812513118424
    Total Energy =                      -1951.9965232048359667

  Dipole Moment: [D]
     X:    -0.3995      Y:    -0.8521      Z:    -1.3137     Total:     1.6160

  Basis Set: (AUG-CC-PVQZ AUX)
    Blend: AUG-CC-PVQZ-RI
	 Reference Energy          =   -1951.9965232048359667 [Eh]
	 Singles Energy            =      -0.0000000000000000 [Eh]
	 Same-Spin Energy          =      -0.3236805494862141 [Eh]
	 Opposite-Spin Energy      =      -0.9926689164807099 [Eh]
	 Correlation Energy        =      -1.3163494659669239 [Eh]
	 Total Energy              =   -1953.3128726708027898 [Eh]

	 ================> DF-SCS-MP2 Energies <==================
	-----------------------------------------------------------
	 SCS Same-Spin Scale       =       0.3333333333333333 [-]
	 SCS Opposite-Spin Scale   =       1.2000000000000000 [-]
	 SCS Same-Spin Energy      =      -0.1078935164954047 [Eh]
	 SCS Opposite-Spin Energy  =      -1.1912026997768519 [Eh]
	 SCS Correlation Energy    =      -1.2990962162722566 [Eh]
	 SCS Total Energy          =   -1953.2956194211083130 [Eh]
	-----------------------------------------------------------

*** Psi4 exiting successfully. Buy a developer a beer!
