                               Psi4 1.3.2 release

  ==> Input File <==

--------------------------------------------------------------------------
molecule {
0 1
 Cl                 -1.3216509    -1.2809349     0.3222521
 Cl                 -0.8136453     1.3984708    -0.6254683
 Cl                  0.5982673    -0.8387328    -1.7959308
 Cl                  1.1940644     0.0026420     0.9073311
  C                 -0.0850511    -0.1807108    -0.3019604
--
0 1
  O                 -1.1989378     0.3311274     3.1977967
  H                 -1.2584408    -0.5991200     3.4145182
  H                 -0.6472900     0.4240575     2.4210293
}
memory 15GB
set_num_threads(4)
psi4_io.set_default_path("/scratch/bdw2292/Psi4-CCl4")
set maxiter 500
set freeze_core True
set PROPERTIES_ORIGIN ["COM"]
e_dim= energy('mp2/aug-cc-pV[TQ]Z',bsse_type='cp')

psi4.print_out('CP Energy = %10.6f' % (e_dim))
clean()
--------------------------------------------------------------------------

    Molecular point group: c1
  Charge       = 0
  Multiplicity = 1
  Basis Set: AUG-CC-PVTZ
    Blend: AUG-CC-PVTZ
  Basis Set: (AUG-CC-PVTZ AUX)
    Blend: AUG-CC-PVTZ-JKFIT
  @DF-RHF Final Energy:   -76.06048004553102
    Total Energy =                        -76.0604800455310226
  Basis Set: (AUG-CC-PVTZ AUX)
    Blend: AUG-CC-PVTZ-RI
	 Reference Energy          =     -76.0604800455310226 [Eh]
	 Singles Energy            =      -0.0000000000000000 [Eh]
	 Same-Spin Energy          =      -0.0650883040593209 [Eh]
	 Opposite-Spin Energy      =      -0.2029563660288320 [Eh]
	 Correlation Energy        =      -0.2680446700881529 [Eh]
	 Total Energy              =     -76.3285247156191815 [Eh]
	 SCS Total Energy          =     -76.3257237861187292 [Eh]
    Molecular point group: c1
  Basis Set: AUG-CC-PVQZ
    Blend: AUG-CC-PVQZ
  Basis Set: (AUG-CC-PVQZ AUX)
    Blend: AUG-CC-PVQZ-JKFIT
  @DF-RHF Final Energy:   -76.06586944773848
    Total Energy =                        -76.0658694477384643
  Basis Set: (AUG-CC-PVQZ AUX)
  @DF-RHF Final Energy:   -76.06054829785727
    Total Energy =                        -76.0605482978572809
  @DF-RHF Final Energy:   -76.06589630558861
    Total Energy =                        -76.0658963055886090
  @DF-RHF Final Energy: -1875.91651165035910
    Total Energy =                      -1875.9165116503590980
  @DF-RHF Final Energy: -1875.93371846988475
    Total Energy =                      -1875.9337184698847523
  @DF-RHF Final Energy: -1875.91637473118499
    Total Energy =                      -1875.9163747311849875
  @DF-RHF Final Energy: -1875.93368661249383
    Total Energy =                      -1875.9336866124938297
  Multiplicity = 1
  @DF-RHF Final Energy: -1951.97098451012403
    Total Energy =                      -1951.9709845101240262
	 Singles Energy            =      -0.0000000000000000 [Eh]
	 Same-Spin Energy          =      -0.3144258040876092 [Eh]
	 Opposite-Spin Energy      =      -0.9110244514042702 [Eh]
	 Correlation Energy        =      -1.2254502554918794 [Eh]
	 Total Energy              =   -1953.1964347656160044 [Eh]
	 SCS Total Energy          =   -1953.1690224531716922 [Eh]
    Molecular point group: c1

    Geometry (in Angstrom), charge = 0, multiplicity = 1:

       Center              X                  Y                   Z               Mass
    ------------   -----------------  -----------------  -----------------  -----------------
         CL          -1.120861875815    -1.150402359767     0.253207338801    34.968852682000
         CL          -0.612856275815     1.529003340233    -0.694513061199    34.968852682000
         CL           0.799056324185    -0.708200259767    -1.864975561199    34.968852682000
         CL           1.394853424185     0.133174540233     0.838286338801    34.968852682000
         C            0.115737924185    -0.050178259767    -0.371005161199    12.000000000000
         O           -0.998148775815     0.461659940233     3.128751938801    15.994914619570
         H           -1.057651775815    -0.468587459767     3.345473438801     1.007825032230
         H           -0.446500975815     0.554590040233     2.351984538801     1.007825032230

  Charge       = 0
  Multiplicity = 1
  Basis Set: AUG-CC-PVQZ
    Blend: AUG-CC-PVQZ
  Basis Set: (AUG-CC-PVQZ AUX)
    Blend: AUG-CC-PVQZ-JKFIT

    Orbital Energies [Eh]
    ---------------------

    Doubly Occupied:

       1A   -104.889386     2A   -104.884336     3A   -104.884096
       4A   -104.883757     5A    -20.551102     6A    -11.505992
       7A    -10.615401     8A    -10.610012     9A    -10.609925
      10A    -10.609406    11A     -8.082329    12A     -8.080307
      13A     -8.080244    14A     -8.076965    15A     -8.076897
      16A     -8.076371    17A     -8.074879    18A     -8.074853
      19A     -8.074784    20A     -8.074781    21A     -8.074253
      22A     -8.074243    23A     -1.341467    24A     -1.291734
      25A     -1.140656    26A     -1.136594    27A     -1.135564
      28A     -0.843444    29A     -0.719369    30A     -0.669037
      31A     -0.667045    32A     -0.666814    33A     -0.575667
      34A     -0.542842    35A     -0.538866    36A     -0.504101
      37A     -0.498031    38A     -0.497723    39A     -0.493621
      40A     -0.470209    41A     -0.470125    42A     -0.467467

  @DF-RHF Final Energy: -1951.99358382836567

   => Energetics <=

    Nuclear Repulsion Energy =            552.9874584288451160
    One-Electron Energy =               -3798.6926934189923486
    Two-Electron Energy =                1293.7116511617816741
    Total Energy =                      -1951.9935838283656722

  Dipole Moment: [D]
     X:     0.8743      Y:    -1.4158      Z:    -1.3605     Total:     2.1494

  Basis Set: (AUG-CC-PVQZ AUX)
    Blend: AUG-CC-PVQZ-RI
	 Reference Energy          =   -1951.9935838283656722 [Eh]
	 Singles Energy            =      -0.0000000000000000 [Eh]
	 Same-Spin Energy          =      -0.3245629911527597 [Eh]
	 Opposite-Spin Energy      =      -0.9937407385584249 [Eh]
	 Correlation Energy        =      -1.3183037297111846 [Eh]
	 Total Energy              =   -1953.3118875580769327 [Eh]

	 ================> DF-SCS-MP2 Energies <==================
	-----------------------------------------------------------
	 SCS Same-Spin Scale       =       0.3333333333333333 [-]
	 SCS Opposite-Spin Scale   =       1.2000000000000000 [-]
	 SCS Same-Spin Energy      =      -0.1081876637175865 [Eh]
	 SCS Opposite-Spin Energy  =      -1.1924888862701100 [Eh]
	 SCS Correlation Energy    =      -1.3006765499876964 [Eh]
	 SCS Total Energy          =   -1953.2942603783533286 [Eh]
	-----------------------------------------------------------

*** Psi4 exiting successfully. Buy a developer a beer!
