                               Psi4 1.3.2 release

  ==> Input File <==

--------------------------------------------------------------------------
molecule {
0 1
 Cl                 -1.2107509    -0.8798622     2.0388667
 Cl                 -1.2016718     1.2595512     0.0928711
 Cl                 -0.4324728    -1.4106835    -0.6944078
 Cl                  1.2946898     0.1437838     1.0222648
  C                 -0.3884123    -0.2223763     0.6163801
--
0 1
 Cl                  1.9365088     1.4403638    -3.2573747
 Cl                  2.0969424     3.4332114    -5.3409381
 Cl                  2.7427943     0.6765073    -5.9239678
 Cl                  4.5133371     2.2579258    -4.2747045
  C                  2.8226395     1.9520056    -4.6997387
}
memory 15GB
set_num_threads(4)
psi4_io.set_default_path("/scratch/bdw2292/Psi4-CCl4")
set maxiter 500
set freeze_core True
set PROPERTIES_ORIGIN ["COM"]
e_dim= energy('mp2/aug-cc-pV[TQ]Z',bsse_type='cp')

psi4.print_out('CP Energy = %10.6f' % (e_dim))
clean()
--------------------------------------------------------------------------

    Molecular point group: c1
  Charge       = 0
  Multiplicity = 1
  Basis Set: AUG-CC-PVTZ
    Blend: AUG-CC-PVTZ
  Basis Set: (AUG-CC-PVTZ AUX)
    Blend: AUG-CC-PVTZ-JKFIT
  @DF-RHF Final Energy: -1875.91638493811615
    Total Energy =                      -1875.9163849381161526
  Basis Set: (AUG-CC-PVTZ AUX)
    Blend: AUG-CC-PVTZ-RI
	 Reference Energy          =   -1875.9163849381161526 [Eh]
	 Singles Energy            =      -0.0000000000000000 [Eh]
	 Same-Spin Energy          =      -0.2463768259597506 [Eh]
	 Opposite-Spin Energy      =      -0.7042185862154036 [Eh]
	 Correlation Energy        =      -0.9505954121751542 [Eh]
	 Total Energy              =   -1876.8669803502912146 [Eh]
	 SCS Total Energy          =   -1876.8435728502279289 [Eh]
    Molecular point group: c1
  Basis Set: AUG-CC-PVQZ
    Blend: AUG-CC-PVQZ
  Basis Set: (AUG-CC-PVQZ AUX)
    Blend: AUG-CC-PVQZ-JKFIT
  @DF-RHF Final Energy: -1875.93369578653505
    Total Energy =                      -1875.9336957865350541
  Basis Set: (AUG-CC-PVQZ AUX)
  @DF-RHF Final Energy: -1875.91642629241915
    Total Energy =                      -1875.9164262924191462
  @DF-RHF Final Energy: -1875.93370329437835
    Total Energy =                      -1875.9337032943783470
  @DF-RHF Final Energy: -1875.91641322254804
    Total Energy =                      -1875.9164132225480444
  @DF-RHF Final Energy: -1875.93369813722779
    Total Energy =                      -1875.9336981372277933
  @DF-RHF Final Energy: -1875.91637816893672
    Total Energy =                      -1875.9163781689367170
  @DF-RHF Final Energy: -1875.93368617147689
    Total Energy =                      -1875.9336861714768929
  Multiplicity = 1
  @DF-RHF Final Energy: -3751.83276133130857
    Total Energy =                      -3751.8327613313085749
	 Singles Energy            =      -0.0000000000000000 [Eh]
	 Same-Spin Energy          =      -0.4936680473304149 [Eh]
	 Opposite-Spin Energy      =      -1.4095982433571685 [Eh]
	 Correlation Energy        =      -1.9032662906875835 [Eh]
	 Total Energy              =   -3753.7360276219960724 [Eh]
	 SCS Total Energy          =   -3753.6888352391138142 [Eh]
    Molecular point group: c1

    Geometry (in Angstrom), charge = 0, multiplicity = 1:

       Center              X                  Y                   Z               Mass
    ------------   -----------------  -----------------  -----------------  -----------------
         CL          -2.428148636270    -1.744939377592     4.081001416988    34.968852682000
         CL          -2.419069536270     0.394474022408     2.135005816988    34.968852682000
         CL          -1.649870536270    -2.275760677592     1.347726916988    34.968852682000
         CL           0.077292063730    -0.721293377592     3.064399516988    34.968852682000
         C           -1.605810036270    -1.087453477592     2.658514816988    12.000000000000
         CL           0.719111063730     0.575286622408    -1.215239983012    34.968852682000
         CL           0.879544663730     2.568134222408    -3.298803383012    34.968852682000
         CL           1.525396563730    -0.188569877592    -3.881833083012    34.968852682000
         CL           3.295939363730     1.392848622408    -2.232569783012    34.968852682000
         C            1.605241763730     1.086928422408    -2.657603983012    12.000000000000

  Charge       = 0
  Multiplicity = 1
  Basis Set: AUG-CC-PVQZ
    Blend: AUG-CC-PVQZ
  Basis Set: (AUG-CC-PVQZ AUX)
    Blend: AUG-CC-PVQZ-JKFIT

    Orbital Energies [Eh]
    ---------------------

    Doubly Occupied:

       1A   -104.877304     2A   -104.877267     3A   -104.877213
       4A   -104.877202     5A   -104.875482     6A   -104.875448
       7A   -104.875435     8A   -104.874797     9A    -11.497854
      10A    -11.495877    11A    -10.602986    12A    -10.602949
      13A    -10.602882    14A    -10.602861    15A    -10.601161
      16A    -10.601126    17A    -10.601113    18A    -10.600485
      19A     -8.069956    20A     -8.069918    21A     -8.069851
      22A     -8.069835    23A     -8.068132    24A     -8.068096
      25A     -8.068088    26A     -8.067860    27A     -8.067858
      28A     -8.067823    29A     -8.067821    30A     -8.067755
      31A     -8.067753    32A     -8.067736    33A     -8.067736
      34A     -8.067456    35A     -8.066038    36A     -8.066037
      37A     -8.066002    38A     -8.066001    39A     -8.065994
      40A     -8.065994    41A     -8.065349    42A     -8.065349
      43A     -1.282555    44A     -1.280717    45A     -1.128738
      46A     -1.128641    47A     -1.128571    48A     -1.126902
      49A     -1.126857    50A     -1.126451    51A     -0.834904
      52A     -0.832935    53A     -0.659522    54A     -0.658976
      55A     -0.658948    56A     -0.657286    57A     -0.657265
      58A     -0.656749    59A     -0.533324    60A     -0.533216
      61A     -0.531087    62A     -0.531029    63A     -0.491351
      64A     -0.489749    65A     -0.489725    66A     -0.487996
      67A     -0.487971    68A     -0.486821    69A     -0.461923
      70A     -0.461899    71A     -0.461456    72A     -0.459889
      73A     -0.459244    74A     -0.459214

  @DF-RHF Final Energy: -3751.86732095132356

   => Energetics <=

    Nuclear Repulsion Energy =           1320.0214632588797485
    One-Electron Energy =               -7817.3540019579359068
    Two-Electron Energy =                2745.4652177477328223
    Total Energy =                      -3751.8673209513235633

  Dipole Moment: [D]
     X:    -0.0442      Y:    -0.0342      Z:     0.0736     Total:     0.0924

  Basis Set: (AUG-CC-PVQZ AUX)
    Blend: AUG-CC-PVQZ-RI
	 Reference Energy          =   -3751.8673209513235633 [Eh]
	 Singles Energy            =      -0.0000000000000000 [Eh]
	 Same-Spin Energy          =      -0.5097704571918609 [Eh]
	 Opposite-Spin Energy      =      -1.5443666462904431 [Eh]
	 Correlation Energy        =      -2.0541371034823039 [Eh]
	 Total Energy              =   -3753.9214580548059530 [Eh]

	 ================> DF-SCS-MP2 Energies <==================
	-----------------------------------------------------------
	 SCS Same-Spin Scale       =       0.3333333333333333 [-]
	 SCS Opposite-Spin Scale   =       1.2000000000000000 [-]
	 SCS Same-Spin Energy      =      -0.1699234857306203 [Eh]
	 SCS Opposite-Spin Energy  =      -1.8532399755485316 [Eh]
	 SCS Correlation Energy    =      -2.0231634612791520 [Eh]
	 SCS Total Energy          =   -3753.8904844126027456 [Eh]
	-----------------------------------------------------------

*** Psi4 exiting successfully. Buy a developer a beer!
