                               Psi4 1.3.2 release

  ==> Input File <==

--------------------------------------------------------------------------
molecule {
0 1
 Cl                 -1.2107509    -0.8798622     2.0388667
 Cl                 -1.2016718     1.2595512     0.0928711
 Cl                 -0.4324728    -1.4106835    -0.6944078
 Cl                  1.2946898     0.1437838     1.0222648
  C                 -0.3884123    -0.2223763     0.6163801
--
0 1
 Cl                  1.3552785     1.0246788    -2.2889360
 Cl                  1.5157122     3.0175264    -4.3724995
 Cl                  2.1615641     0.2608222    -4.9555291
 Cl                  3.9321069     1.8422407    -3.3062658
  C                  2.2414092     1.5363205    -3.7313001
}
memory 15GB
set_num_threads(4)
psi4_io.set_default_path("/scratch/bdw2292/Psi4-CCl4")
set maxiter 500
set freeze_core True
set PROPERTIES_ORIGIN ["COM"]
e_dim= energy('mp2/aug-cc-pV[TQ]Z',bsse_type='cp')

psi4.print_out('CP Energy = %10.6f' % (e_dim))
clean()
--------------------------------------------------------------------------

    Molecular point group: c1
  Charge       = 0
  Multiplicity = 1
  Basis Set: AUG-CC-PVTZ
    Blend: AUG-CC-PVTZ
  Basis Set: (AUG-CC-PVTZ AUX)
    Blend: AUG-CC-PVTZ-JKFIT
  @DF-RHF Final Energy: -1875.91638493809660
    Total Energy =                      -1875.9163849380965985
  Basis Set: (AUG-CC-PVTZ AUX)
    Blend: AUG-CC-PVTZ-RI
	 Reference Energy          =   -1875.9163849380965985 [Eh]
	 Singles Energy            =      -0.0000000000000000 [Eh]
	 Same-Spin Energy          =      -0.2463768250562124 [Eh]
	 Opposite-Spin Energy      =      -0.7042185874920440 [Eh]
	 Correlation Energy        =      -0.9505954125482565 [Eh]
	 Total Energy              =   -1876.8669803506447806 [Eh]
	 SCS Total Energy          =   -1876.8435728514391485 [Eh]
    Molecular point group: c1
  Basis Set: AUG-CC-PVQZ
    Blend: AUG-CC-PVQZ
  Basis Set: (AUG-CC-PVQZ AUX)
    Blend: AUG-CC-PVQZ-JKFIT
  @DF-RHF Final Energy: -1875.93369578558213
    Total Energy =                      -1875.9336957855821311
  Basis Set: (AUG-CC-PVQZ AUX)
  @DF-RHF Final Energy: -1875.91648285821429
    Total Energy =                      -1875.9164828582142945
  @DF-RHF Final Energy: -1875.93371463850758
    Total Energy =                      -1875.9337146385075812
  @DF-RHF Final Energy: -1875.91650368453020
    Total Energy =                      -1875.9165036845301984
  @DF-RHF Final Energy: -1875.93371353867974
    Total Energy =                      -1875.9337135386797399
  @DF-RHF Final Energy: -1875.91637816930734
    Total Energy =                      -1875.9163781693073361
  @DF-RHF Final Energy: -1875.93368617200053
    Total Energy =                      -1875.9336861720005345
  Multiplicity = 1
  @DF-RHF Final Energy: -3751.82655904859348
    Total Energy =                      -3751.8265590485934808
	 Singles Energy            =      -0.0000000000000000 [Eh]
	 Same-Spin Energy          =      -0.4972152275785431 [Eh]
	 Opposite-Spin Energy      =      -1.4138143392508942 [Eh]
	 Correlation Energy        =      -1.9110295668294373 [Eh]
	 Total Energy              =   -3753.7375886154227373 [Eh]
	 SCS Total Energy          =   -3753.6888746648874076 [Eh]
    Molecular point group: c1

    Geometry (in Angstrom), charge = 0, multiplicity = 1:

       Center              X                  Y                   Z               Mass
    ------------   -----------------  -----------------  -----------------  -----------------
         CL          -2.137533520807    -1.537096850616     3.596782082451    34.968852682000
         CL          -2.128454420807     0.602316549384     1.650786482451    34.968852682000
         CL          -1.359255420807    -2.067918150616     0.863507582451    34.968852682000
         CL           0.367907179193    -0.513450850616     2.580180182451    34.968852682000
         C           -1.315194920807    -0.879610950616     2.174295482451    12.000000000000
         CL           0.428495879193     0.367444149384    -0.731020617549    34.968852682000
         CL           0.588929579193     2.360291749384    -2.814584117549    34.968852682000
         CL           1.234781479193    -0.396412450616    -3.397613717549    34.968852682000
         CL           3.005324279193     1.185006049384    -1.748350417549    34.968852682000
         C            1.314626579193     0.879085849384    -2.173384717549    12.000000000000

  Charge       = 0
  Multiplicity = 1
  Basis Set: AUG-CC-PVQZ
    Blend: AUG-CC-PVQZ
  Basis Set: (AUG-CC-PVQZ AUX)
    Blend: AUG-CC-PVQZ-JKFIT

    Orbital Energies [Eh]
    ---------------------

    Doubly Occupied:

       1A   -104.877509     2A   -104.877412     3A   -104.877144
       4A   -104.876895     5A   -104.874384     6A   -104.874318
       7A   -104.874222     8A   -104.871226     9A    -11.498364
      10A    -11.494010    11A    -10.603319    12A    -10.603062
      13A    -10.602995    14A    -10.602754    15A    -10.600080
      16A    -10.600011    17A    -10.599921    18A    -10.597344
      19A     -8.070279    20A     -8.070033    21A     -8.069951
      22A     -8.069708    23A     -8.068191    24A     -8.068177
      25A     -8.067933    26A     -8.067933    27A     -8.067866
      28A     -8.067848    29A     -8.067623    30A     -8.067605
      31A     -8.067053    32A     -8.066984    33A     -8.066894
      34A     -8.064965    35A     -8.064963    36A     -8.064896
      37A     -8.064894    38A     -8.064806    39A     -8.064804
      40A     -8.064284    41A     -8.062108    42A     -8.062106
      43A     -1.283619    44A     -1.279195    45A     -1.130358
      46A     -1.129530    47A     -1.129375    48A     -1.125823
      49A     -1.125763    50A     -1.124067    51A     -0.836358
      52A     -0.831402    53A     -0.666813    54A     -0.659684
      55A     -0.659612    56A     -0.656012    57A     -0.655967
      58A     -0.650738    59A     -0.537921    60A     -0.537695
      61A     -0.527616    62A     -0.527548    63A     -0.498668
      64A     -0.490346    65A     -0.490278    66A     -0.487283
      67A     -0.486945    68A     -0.477185    69A     -0.466023
      70A     -0.465530    71A     -0.461933    72A     -0.458891
      73A     -0.453601    74A     -0.452827

  @DF-RHF Final Energy: -3751.86104727997235

   => Energetics <=

    Nuclear Repulsion Energy =           1418.5551881727644741
    One-Electron Energy =               -8014.4895204806471156
    Two-Electron Energy =                2844.0732850279105151
    Total Energy =                      -3751.8610472799723539

  Dipole Moment: [D]
     X:    -0.0789      Y:    -0.0647      Z:     0.1359     Total:     0.1699

  Basis Set: (AUG-CC-PVQZ AUX)
    Blend: AUG-CC-PVQZ-RI
	 Reference Energy          =   -3751.8610472799723539 [Eh]
	 Singles Energy            =      -0.0000000000000000 [Eh]
	 Same-Spin Energy          =      -0.5134075759739929 [Eh]
	 Opposite-Spin Energy      =      -1.5485559747286868 [Eh]
	 Correlation Energy        =      -2.0619635507026794 [Eh]
	 Total Energy              =   -3753.9230108306751390 [Eh]

	 ================> DF-SCS-MP2 Energies <==================
	-----------------------------------------------------------
	 SCS Same-Spin Scale       =       0.3333333333333333 [-]
	 SCS Opposite-Spin Scale   =       1.2000000000000000 [-]
	 SCS Same-Spin Energy      =      -0.1711358586579976 [Eh]
	 SCS Opposite-Spin Energy  =      -1.8582671696744240 [Eh]
	 SCS Correlation Energy    =      -2.0294030283324216 [Eh]
	 SCS Total Energy          =   -3753.8904503083049349 [Eh]
	-----------------------------------------------------------

*** Psi4 exiting successfully. Buy a developer a beer!
