                               Psi4 1.3.2 release

  ==> Input File <==

--------------------------------------------------------------------------
molecule {
0 1
 Cl                 -0.1579851    -0.2358107     1.5789989
 Cl                 -0.5853312     1.5314563    -0.6626172
 Cl                 -0.0039900    -1.2608089    -1.1136819
 Cl                  2.0634563     0.5020987    -0.1198940
  C                  0.3323723     0.1352885    -0.0797709
--
0 1
  O                 -4.6348638    -2.0096245     2.6783677
  H                 -4.4988993    -2.9569878     2.6766010
  H                 -4.2251038    -1.6443735     1.8939224
}
memory 15GB
set_num_threads(4)
psi4_io.set_default_path("/scratch/bdw2292/Psi4-CCl4")
set maxiter 500
set freeze_core True
set PROPERTIES_ORIGIN ["COM"]
e_dim= energy('mp2/aug-cc-pV[TQ]Z',bsse_type='cp')

psi4.print_out('CP Energy = %10.6f' % (e_dim))
clean()
--------------------------------------------------------------------------

    Molecular point group: c1
  Charge       = 0
  Multiplicity = 1
  Basis Set: AUG-CC-PVTZ
    Blend: AUG-CC-PVTZ
  Basis Set: (AUG-CC-PVTZ AUX)
    Blend: AUG-CC-PVTZ-JKFIT
  @DF-RHF Final Energy:   -76.06046041548719
    Total Energy =                        -76.0604604154871708
  Basis Set: (AUG-CC-PVTZ AUX)
    Blend: AUG-CC-PVTZ-RI
	 Reference Energy          =     -76.0604604154871851 [Eh]
	 Singles Energy            =      -0.0000000000000000 [Eh]
	 Same-Spin Energy          =      -0.0650895823343211 [Eh]
	 Opposite-Spin Energy      =      -0.2029601800947873 [Eh]
	 Correlation Energy        =      -0.2680497624291084 [Eh]
	 Total Energy              =     -76.3285101779163000 [Eh]
	 SCS Total Energy          =     -76.3257091590457009 [Eh]
    Molecular point group: c1
  Basis Set: AUG-CC-PVQZ
    Blend: AUG-CC-PVQZ
  Basis Set: (AUG-CC-PVQZ AUX)
    Blend: AUG-CC-PVQZ-JKFIT
  @DF-RHF Final Energy:   -76.06584911980688
    Total Energy =                        -76.0658491198068845
  Basis Set: (AUG-CC-PVQZ AUX)
  @DF-RHF Final Energy:   -76.06046613320608
    Total Energy =                        -76.0604661332060772
  @DF-RHF Final Energy:   -76.06585215942596
    Total Energy =                        -76.0658521594259582
  @DF-RHF Final Energy: -1875.91638848894149
    Total Energy =                      -1875.9163884889414931
  @DF-RHF Final Energy: -1875.93368892669332
    Total Energy =                      -1875.9336889266933213
  @DF-RHF Final Energy: -1875.91637441283365
    Total Energy =                      -1875.9163744128336475
  @DF-RHF Final Energy: -1875.93368448195156
    Total Energy =                      -1875.9336844819515591
  Multiplicity = 1
  @DF-RHF Final Energy: -1951.97708753976576
    Total Energy =                      -1951.9770875397657619
	 Singles Energy            =      -0.0000000000000000 [Eh]
	 Same-Spin Energy          =      -0.3116024465161533 [Eh]
	 Opposite-Spin Energy      =      -0.9073753958530784 [Eh]
	 Correlation Energy        =      -1.2189778423692317 [Eh]
	 Total Energy              =   -1953.1960653821349752 [Eh]
	 SCS Total Energy          =   -1953.1698054969615441 [Eh]
    Molecular point group: c1

    Geometry (in Angstrom), charge = 0, multiplicity = 1:

       Center              X                  Y                   Z               Mass
    ------------   -----------------  -----------------  -----------------  -----------------
         CL           0.035755415205    -0.139383302428     1.370639249140    34.968852682000
         CL          -0.391590684795     1.627883697572    -0.870976850860    34.968852682000
         CL           0.189750515205    -1.164381502428    -1.322041550860    34.968852682000
         CL           2.257196815205     0.598526097572    -0.328253650860    34.968852682000
         C            0.526112815205     0.231715897572    -0.288130550860    12.000000000000
         O           -4.441123284795    -1.913197102428     2.470008049140    15.994914619570
         H           -4.305158784795    -2.860560402428     2.468241349140     1.007825032230
         H           -4.031363284795    -1.547946102428     1.685562749140     1.007825032230

  Charge       = 0
  Multiplicity = 1
  Basis Set: AUG-CC-PVQZ
    Blend: AUG-CC-PVQZ
  Basis Set: (AUG-CC-PVQZ AUX)
    Blend: AUG-CC-PVQZ-JKFIT

    Orbital Energies [Eh]
    ---------------------

    Doubly Occupied:

       1A   -104.879730     2A   -104.879197     3A   -104.879161
       4A   -104.879010     5A    -20.562196     6A    -11.499776
       7A    -10.605439     8A    -10.604881     9A    -10.604781
      10A    -10.604688    11A     -8.072410    12A     -8.071850
      13A     -8.071753    14A     -8.071658    15A     -8.070321
      16A     -8.070319    17A     -8.069751    18A     -8.069748
      19A     -8.069652    20A     -8.069651    21A     -8.069561
      22A     -8.069559    23A     -1.349343    24A     -1.284646
      25A     -1.130984    26A     -1.130623    27A     -1.130428
      28A     -0.836868    29A     -0.724325    30A     -0.661300
      31A     -0.661090    32A     -0.660871    33A     -0.576722
      34A     -0.535240    35A     -0.535078    36A     -0.508603
      37A     -0.492487    38A     -0.491728    39A     -0.491525
      40A     -0.463822    41A     -0.463605    42A     -0.463353

  @DF-RHF Final Energy: -1951.99977194451276

   => Energetics <=

    Nuclear Repulsion Energy =            513.6625255065800957
    One-Electron Energy =               -3720.4491289206011970
    Two-Electron Energy =                1254.7868314695083427
    Total Energy =                      -1951.9997719445127586

  Dipole Moment: [D]
     X:     1.0194      Y:    -0.9258      Z:    -1.3241     Total:     1.9103

  Basis Set: (AUG-CC-PVQZ AUX)
    Blend: AUG-CC-PVQZ-RI
	 Reference Energy          =   -1951.9997719445127586 [Eh]
	 Singles Energy            =      -0.0000000000000000 [Eh]
	 Same-Spin Energy          =      -0.3217221023036622 [Eh]
	 Opposite-Spin Energy      =      -0.9903133584445285 [Eh]
	 Correlation Energy        =      -1.3120354607481906 [Eh]
	 Total Energy              =   -1953.3118074052608790 [Eh]

	 ================> DF-SCS-MP2 Energies <==================
	-----------------------------------------------------------
	 SCS Same-Spin Scale       =       0.3333333333333333 [-]
	 SCS Opposite-Spin Scale   =       1.2000000000000000 [-]
	 SCS Same-Spin Energy      =      -0.1072407007678874 [Eh]
	 SCS Opposite-Spin Energy  =      -1.1883760301334341 [Eh]
	 SCS Correlation Energy    =      -1.2956167309013216 [Eh]
	 SCS Total Energy          =   -1953.2953886754141877 [Eh]
	-----------------------------------------------------------

*** Psi4 exiting successfully. Buy a developer a beer!
