                               Psi4 1.3.2 release

  ==> Input File <==

--------------------------------------------------------------------------
molecule {
0 1
 Cl                 -0.9834540    -0.5863909     1.9222969
 Cl                 -1.0203298     1.3185487    -0.2497215
 Cl                 -0.3649296    -1.4476266    -0.7655753
 Cl                  1.4944115     0.2308771     0.6813521
  C                 -0.2163540    -0.1195090     0.3969557
--
0 1
  O                  1.5024165     0.7904493    -2.9347396
  H                  0.7877487     0.1571953    -2.8636268
  H                  1.4274707     1.2381062    -3.7773315
}
memory 15GB
set_num_threads(4)
psi4_io.set_default_path("/scratch/bdw2292/Psi4-CCl4")
set maxiter 500
set freeze_core True
set PROPERTIES_ORIGIN ["COM"]
e_dim= energy('mp2/aug-cc-pV[TQ]Z',bsse_type='cp')

psi4.print_out('CP Energy = %10.6f' % (e_dim))
clean()
--------------------------------------------------------------------------

    Molecular point group: c1
  Charge       = 0
  Multiplicity = 1
  Basis Set: AUG-CC-PVTZ
    Blend: AUG-CC-PVTZ
  Basis Set: (AUG-CC-PVTZ AUX)
    Blend: AUG-CC-PVTZ-JKFIT
  @DF-RHF Final Energy:   -76.06044970425540
    Total Energy =                        -76.0604497042554044
  Basis Set: (AUG-CC-PVTZ AUX)
    Blend: AUG-CC-PVTZ-RI
	 Reference Energy          =     -76.0604497042554044 [Eh]
	 Singles Energy            =      -0.0000000000000000 [Eh]
	 Same-Spin Energy          =      -0.0650895903647500 [Eh]
	 Opposite-Spin Energy      =      -0.2029598397981005 [Eh]
	 Correlation Energy        =      -0.2680494301628505 [Eh]
	 Total Energy              =     -76.3284991344182515 [Eh]
	 SCS Total Energy          =     -76.3256980421347038 [Eh]
    Molecular point group: c1
  Basis Set: AUG-CC-PVQZ
    Blend: AUG-CC-PVQZ
  Basis Set: (AUG-CC-PVQZ AUX)
    Blend: AUG-CC-PVQZ-JKFIT
  @DF-RHF Final Energy:   -76.06583816391404
    Total Energy =                        -76.0658381639140373
  Basis Set: (AUG-CC-PVQZ AUX)
  @DF-RHF Final Energy:   -76.06048140545217
    Total Energy =                        -76.0604814054521654
  @DF-RHF Final Energy:   -76.06585342571549
    Total Energy =                        -76.0658534257154884
  @DF-RHF Final Energy: -1875.91646206198652
    Total Energy =                      -1875.9164620619865218
  @DF-RHF Final Energy: -1875.93369030278404
    Total Energy =                      -1875.9336903027840435
  @DF-RHF Final Energy: -1875.91636516016138
    Total Energy =                      -1875.9163651601613765
  @DF-RHF Final Energy: -1875.93366824621671
    Total Energy =                      -1875.9336682462167119
  Multiplicity = 1
  @DF-RHF Final Energy: -1951.97589928502521
    Total Energy =                      -1951.9758992850252071
	 Singles Energy            =      -0.0000000000000000 [Eh]
	 Same-Spin Energy          =      -0.3129953755813586 [Eh]
	 Opposite-Spin Energy      =      -0.9091888965897343 [Eh]
	 Correlation Energy        =      -1.2221842721710929 [Eh]
	 Total Energy              =   -1953.1980835571962416 [Eh]
	 SCS Total Energy          =   -1953.1712577527932808 [Eh]
    Molecular point group: c1

    Geometry (in Angstrom), charge = 0, multiplicity = 1:

       Center              X                  Y                   Z               Mass
    ------------   -----------------  -----------------  -----------------  -----------------
         CL          -0.942803174526    -0.560901244872     1.883020619970    34.968852682000
         CL          -0.979678974526     1.344038355128    -0.288997780030    34.968852682000
         CL          -0.324278774526    -1.422136944872    -0.804851580030    34.968852682000
         CL           1.535062325474     0.256366755128     0.642075819970    34.968852682000
         C           -0.175703174526    -0.094019344872     0.357679419970    12.000000000000
         O            1.543067325474     0.815938955128    -2.974015880030    15.994914619570
         H            0.828399525474     0.182684955128    -2.902903080030     1.007825032230
         H            1.468121525474     1.263595855128    -3.816607780030     1.007825032230

  Charge       = 0
  Multiplicity = 1
  Basis Set: AUG-CC-PVQZ
    Blend: AUG-CC-PVQZ
  Basis Set: (AUG-CC-PVQZ AUX)
    Blend: AUG-CC-PVQZ-JKFIT

    Orbital Energies [Eh]
    ---------------------

    Doubly Occupied:

       1A   -104.879124     2A   -104.874935     3A   -104.874056
       4A   -104.871090     5A    -20.559407     6A    -11.495747
       7A    -10.604923     8A    -10.600616     9A    -10.599748
      10A    -10.596674    11A     -8.071889    12A     -8.069853
      13A     -8.069831    14A     -8.067586    15A     -8.066720
      16A     -8.065495    17A     -8.065490    18A     -8.064625
      19A     -8.064612    20A     -8.063647    21A     -8.061517
      22A     -8.061504    23A     -1.347337    24A     -1.279991
      25A     -1.129274    26A     -1.125877    27A     -1.123607
      28A     -0.832660    29A     -0.723407    30A     -0.657895
      31A     -0.656310    32A     -0.655442    33A     -0.575278
      34A     -0.531144    35A     -0.530805    36A     -0.507537
      37A     -0.488197    38A     -0.487101    39A     -0.485947
      40A     -0.460938    41A     -0.459091    42A     -0.457001

  @DF-RHF Final Energy: -1951.99852141621909

   => Energetics <=

    Nuclear Repulsion Energy =            545.8927986785826079
    One-Electron Energy =               -3785.2547904992552503
    Two-Electron Energy =                1287.3634704044536647
    Total Energy =                      -1951.9985214162190914

  Dipole Moment: [D]
     X:    -1.1370      Y:    -0.1570      Z:    -1.1885     Total:     1.6523

  Basis Set: (AUG-CC-PVQZ AUX)
    Blend: AUG-CC-PVQZ-RI
	 Reference Energy          =   -1951.9985214162190914 [Eh]
	 Singles Energy            =      -0.0000000000000000 [Eh]
	 Same-Spin Energy          =      -0.3231171276348802 [Eh]
	 Opposite-Spin Energy      =      -0.9919840145782062 [Eh]
	 Correlation Energy        =      -1.3151011422130865 [Eh]
	 Total Energy              =   -1953.3136225584321437 [Eh]

	 ================> DF-SCS-MP2 Energies <==================
	-----------------------------------------------------------
	 SCS Same-Spin Scale       =       0.3333333333333333 [-]
	 SCS Opposite-Spin Scale   =       1.2000000000000000 [-]
	 SCS Same-Spin Energy      =      -0.1077057092116267 [Eh]
	 SCS Opposite-Spin Energy  =      -1.1903808174938473 [Eh]
	 SCS Correlation Energy    =      -1.2980865267054740 [Eh]
	 SCS Total Energy          =   -1953.2966079429245383 [Eh]
	-----------------------------------------------------------

*** Psi4 exiting successfully. Buy a developer a beer!
