                               Psi4 1.3.2 release

  ==> Input File <==

--------------------------------------------------------------------------
molecule {
0 1
 Cl                 -1.1871076    -0.8335049     1.5502738
 Cl                 -0.8653436     1.3740538    -0.2923766
 Cl                 -0.1207216    -1.2934769    -1.0993016
 Cl                  1.4598061     0.1120695     0.8621506
  C                 -0.1806370    -0.1611091     0.2591364
--
0 1
  O                  2.6039663     2.6723435    -2.5304623
  H                  2.1842786     1.8118884    -2.5333709
  H                  2.7889965     2.9219946    -3.4356530
}
memory 15GB
set_num_threads(4)
psi4_io.set_default_path("/scratch/bdw2292/Psi4-CCl4")
set maxiter 500
set freeze_core True
set PROPERTIES_ORIGIN ["COM"]
e_dim= energy('mp2/aug-cc-pV[TQ]Z',bsse_type='cp')

psi4.print_out('CP Energy = %10.6f' % (e_dim))
clean()
--------------------------------------------------------------------------

    Molecular point group: c1
  Charge       = 0
  Multiplicity = 1
  Basis Set: AUG-CC-PVTZ
    Blend: AUG-CC-PVTZ
  Basis Set: (AUG-CC-PVTZ AUX)
    Blend: AUG-CC-PVTZ-JKFIT
  @DF-RHF Final Energy:   -76.06045551821578
    Total Energy =                        -76.0604555182157753
  Basis Set: (AUG-CC-PVTZ AUX)
    Blend: AUG-CC-PVTZ-RI
	 Reference Energy          =     -76.0604555182157753 [Eh]
	 Singles Energy            =      -0.0000000000000000 [Eh]
	 Same-Spin Energy          =      -0.0650879868517403 [Eh]
	 Opposite-Spin Energy      =      -0.2029544248369252 [Eh]
	 Correlation Energy        =      -0.2680424116886656 [Eh]
	 Total Energy              =     -76.3284979299044437 [Eh]
	 SCS Total Energy          =     -76.3256968236373297 [Eh]
    Molecular point group: c1
  Basis Set: AUG-CC-PVQZ
    Blend: AUG-CC-PVQZ
  Basis Set: (AUG-CC-PVQZ AUX)
    Blend: AUG-CC-PVQZ-JKFIT
  @DF-RHF Final Energy:   -76.06584441068097
    Total Energy =                        -76.0658444106809668
  Basis Set: (AUG-CC-PVQZ AUX)
  @DF-RHF Final Energy:   -76.06046761145065
    Total Energy =                        -76.0604676114506475
  @DF-RHF Final Energy:   -76.06585016771082
    Total Energy =                        -76.0658501677108063
  @DF-RHF Final Energy: -1875.91641139530770
    Total Energy =                      -1875.9164113953077049
  @DF-RHF Final Energy: -1875.93369649954002
    Total Energy =                      -1875.9336964995400194
  @DF-RHF Final Energy: -1875.91637206766700
    Total Energy =                      -1875.9163720676669982
  @DF-RHF Final Energy: -1875.93368418851651
    Total Energy =                      -1875.9336841885165086
  Multiplicity = 1
  @DF-RHF Final Energy: -1951.97693586782248
    Total Energy =                      -1951.9769358678224762
	 Singles Energy            =      -0.0000000000000000 [Eh]
	 Same-Spin Energy          =      -0.3119429755193055 [Eh]
	 Opposite-Spin Energy      =      -0.9078242170019633 [Eh]
	 Correlation Energy        =      -1.2197671925212688 [Eh]
	 Total Energy              =   -1953.1967030603436797 [Eh]
	 SCS Total Energy          =   -1953.1703059200644930 [Eh]
    Molecular point group: c1

    Geometry (in Angstrom), charge = 0, multiplicity = 1:

       Center              X                  Y                   Z               Mass
    ------------   -----------------  -----------------  -----------------  -----------------
         CL          -1.302179787040    -0.969898950015     1.595517675068    34.968852682000
         CL          -0.980415787040     1.237659749985    -0.247132724932    34.968852682000
         CL          -0.235793787040    -1.429870950015    -1.054057724932    34.968852682000
         CL           1.344733912960    -0.024324550015     0.907394475068    34.968852682000
         C           -0.295709187040    -0.297503150015     0.304380275068    12.000000000000
         O            2.488894112960     2.535949449985    -2.485218424932    15.994914619570
         H            2.069206412960     1.675494349985    -2.488127024932     1.007825032230
         H            2.673924312960     2.785600549985    -3.390409124932     1.007825032230

  Charge       = 0
  Multiplicity = 1
  Basis Set: AUG-CC-PVQZ
    Blend: AUG-CC-PVQZ
  Basis Set: (AUG-CC-PVQZ AUX)
    Blend: AUG-CC-PVQZ-JKFIT

    Orbital Energies [Eh]
    ---------------------

    Doubly Occupied:

       1A   -104.878682     2A   -104.877442     3A   -104.876575
       4A   -104.876518     5A    -20.561101     6A    -11.497737
       7A    -10.604431     8A    -10.603067     9A    -10.602251
      10A    -10.602186    11A     -8.071400    12A     -8.070041
      13A     -8.069324    14A     -8.069317    15A     -8.069218
      16A     -8.069154    17A     -8.067942    18A     -8.067941
      19A     -8.067114    20A     -8.067109    21A     -8.067049
      22A     -8.067043    23A     -1.348291    24A     -1.282849
      25A     -1.129726    26A     -1.128607    27A     -1.127991
      28A     -0.834892    29A     -0.723466    30A     -0.659753
      31A     -0.659225    32A     -0.658642    33A     -0.575583
      34A     -0.533447    35A     -0.533094    36A     -0.507579
      37A     -0.490704    38A     -0.489873    39A     -0.489331
      40A     -0.462275    41A     -0.461646    42A     -0.460880

  @DF-RHF Final Energy: -1951.99960796256505

   => Energetics <=

    Nuclear Repulsion Energy =            528.2770365732966411
    One-Electron Energy =               -3749.8322935378196235
    Two-Electron Energy =                1269.5556490019578177
    Total Energy =                      -1951.9996079625650509

  Dipole Moment: [D]
     X:    -0.4180      Y:    -0.9589      Z:    -1.3952     Total:     1.7438

  Basis Set: (AUG-CC-PVQZ AUX)
    Blend: AUG-CC-PVQZ-RI
	 Reference Energy          =   -1951.9996079625650509 [Eh]
	 Singles Energy            =      -0.0000000000000000 [Eh]
	 Same-Spin Energy          =      -0.3220607309188663 [Eh]
	 Opposite-Spin Energy      =      -0.9907172566361846 [Eh]
	 Correlation Energy        =      -1.3127779875550509 [Eh]
	 Total Energy              =   -1953.3123859501201878 [Eh]

	 ================> DF-SCS-MP2 Energies <==================
	-----------------------------------------------------------
	 SCS Same-Spin Scale       =       0.3333333333333333 [-]
	 SCS Opposite-Spin Scale   =       1.2000000000000000 [-]
	 SCS Same-Spin Energy      =      -0.1073535769729554 [Eh]
	 SCS Opposite-Spin Energy  =      -1.1888607079634215 [Eh]
	 SCS Correlation Energy    =      -1.2962142849363769 [Eh]
	 SCS Total Energy          =   -1953.2958222475015191 [Eh]
	-----------------------------------------------------------

*** Psi4 exiting successfully. Buy a developer a beer!
