                               Psi4 1.3.2 release

  ==> Input File <==

--------------------------------------------------------------------------
molecule {
0 1
 Cl                 -1.2107509    -0.8798622     2.0388667
 Cl                 -1.2016718     1.2595512     0.0928711
 Cl                 -0.4324728    -1.4106835    -0.6944078
 Cl                  1.2946898     0.1437838     1.0222648
  C                 -0.3884123    -0.2223763     0.6163801
--
0 1
 Cl                  2.3239956     1.7174872    -3.9030005
 Cl                  2.4844293     3.7103348    -5.9865639
 Cl                  3.1302812     0.9536306    -6.5695936
 Cl                  4.9008240     2.5350491    -4.9203303
  C                  3.2101264     2.2291289    -5.3453645
}
memory 15GB
set_num_threads(4)
psi4_io.set_default_path("/scratch/bdw2292/Psi4-CCl4")
set maxiter 500
set freeze_core True
set PROPERTIES_ORIGIN ["COM"]
e_dim= energy('mp2/aug-cc-pV[TQ]Z',bsse_type='cp')

psi4.print_out('CP Energy = %10.6f' % (e_dim))
clean()
--------------------------------------------------------------------------

    Molecular point group: c1
  Charge       = 0
  Multiplicity = 1
  Basis Set: AUG-CC-PVTZ
    Blend: AUG-CC-PVTZ
  Basis Set: (AUG-CC-PVTZ AUX)
    Blend: AUG-CC-PVTZ-JKFIT
  @DF-RHF Final Energy: -1875.91638493815003
    Total Energy =                      -1875.9163849381500313
  Basis Set: (AUG-CC-PVTZ AUX)
    Blend: AUG-CC-PVTZ-RI
	 Reference Energy          =   -1875.9163849381500313 [Eh]
	 Singles Energy            =      -0.0000000000000000 [Eh]
	 Same-Spin Energy          =      -0.2463768252889773 [Eh]
	 Opposite-Spin Energy      =      -0.7042185871646345 [Eh]
	 Correlation Energy        =      -0.9505954124536118 [Eh]
	 Total Energy              =   -1876.8669803506036260 [Eh]
	 SCS Total Energy          =   -1876.8435728511772140 [Eh]
    Molecular point group: c1
  Basis Set: AUG-CC-PVQZ
    Blend: AUG-CC-PVQZ
  Basis Set: (AUG-CC-PVQZ AUX)
    Blend: AUG-CC-PVQZ-JKFIT
  @DF-RHF Final Energy: -1875.93369578574789
    Total Energy =                      -1875.9336957857478865
  Basis Set: (AUG-CC-PVQZ AUX)
  @DF-RHF Final Energy: -1875.91641458308595
    Total Energy =                      -1875.9164145830859525
  @DF-RHF Final Energy: -1875.93370040471950
    Total Energy =                      -1875.9337004047195023
  @DF-RHF Final Energy: -1875.91639627114637
    Total Energy =                      -1875.9163962711463682
  @DF-RHF Final Energy: -1875.93369192203727
    Total Energy =                      -1875.9336919220372693
  @DF-RHF Final Energy: -1875.91637816925322
    Total Energy =                      -1875.9163781692532211
  @DF-RHF Final Energy: -1875.93368617212991
    Total Energy =                      -1875.9336861721299101
  Multiplicity = 1
  @DF-RHF Final Energy: -3751.83285163647179
    Total Energy =                      -3751.8328516364717871
	 Singles Energy            =      -0.0000000000000000 [Eh]
	 Same-Spin Energy          =      -0.4931245183299830 [Eh]
	 Opposite-Spin Energy      =      -1.4089293362474522 [Eh]
	 Correlation Energy        =      -1.9020538545774353 [Eh]
	 Total Energy              =   -3753.7349054910491759 [Eh]
	 SCS Total Energy          =   -3753.6879416794122335 [Eh]
    Molecular point group: c1

    Geometry (in Angstrom), charge = 0, multiplicity = 1:

       Center              X                  Y                   Z               Mass
    ------------   -----------------  -----------------  -----------------  -----------------
         CL          -2.621892074757    -1.883501050616     4.403814316988    34.968852682000
         CL          -2.612812974757     0.255912349384     2.457818716988    34.968852682000
         CL          -1.843613974757    -2.414322350616     1.670539816988    34.968852682000
         CL          -0.116451374757    -0.859855050616     3.387212416988    34.968852682000
         C           -1.799553474757    -1.226015150616     2.981327716988    12.000000000000
         CL           0.912854425243     0.713848349384    -1.538052883012    34.968852682000
         CL           1.073288125243     2.706695949384    -3.621616283012    34.968852682000
         CL           1.719140025243    -0.050008250616    -4.204645983012    34.968852682000
         CL           3.489682825243     1.531410249384    -2.555382683012    34.968852682000
         C            1.798985225243     1.225490049384    -2.980416883012    12.000000000000

  Charge       = 0
  Multiplicity = 1
  Basis Set: AUG-CC-PVQZ
    Blend: AUG-CC-PVQZ
  Basis Set: (AUG-CC-PVQZ AUX)
    Blend: AUG-CC-PVQZ-JKFIT

    Orbital Energies [Eh]
    ---------------------

    Doubly Occupied:

       1A   -104.876973     2A   -104.876924     3A   -104.876905
       4A   -104.876868     5A   -104.875753     6A   -104.875723
       7A   -104.875718     8A   -104.875357     9A    -11.497556
      10A    -11.496246    11A    -10.602626    12A    -10.602604
      13A    -10.602584    14A    -10.602543    15A    -10.601429
      16A    -10.601401    17A    -10.601390    18A    -10.601045
      19A     -8.069597    20A     -8.069574    21A     -8.069555
      22A     -8.069514    23A     -8.068400    24A     -8.068369
      25A     -8.068366    26A     -8.068017    27A     -8.067499
      28A     -8.067499    29A     -8.067478    30A     -8.067477
      31A     -8.067459    32A     -8.067458    33A     -8.067419
      34A     -8.067418    35A     -8.066305    36A     -8.066305
      37A     -8.066274    38A     -8.066273    39A     -8.066272
      40A     -8.066272    41A     -8.065915    42A     -8.065915
      43A     -1.282190    44A     -1.281056    45A     -1.128421
      46A     -1.128262    47A     -1.128206    48A     -1.127174
      49A     -1.127125    50A     -1.126920    51A     -0.834548
      52A     -0.833297    53A     -0.658871    54A     -0.658651
      55A     -0.658618    56A     -0.657596    57A     -0.657572
      58A     -0.657377    59A     -0.532819    60A     -0.532710
      61A     -0.531535    62A     -0.531472    63A     -0.490012
      64A     -0.489429    65A     -0.489401    66A     -0.488332
      67A     -0.488304    68A     -0.488093    69A     -0.461348
      70A     -0.461319    71A     -0.461119    72A     -0.460142
      73A     -0.459861    74A     -0.459835

  @DF-RHF Final Energy: -3751.86743249042684

   => Energetics <=

    Nuclear Repulsion Energy =           1272.0286825464631875
    One-Electron Energy =               -7721.3684695022202504
    Two-Electron Energy =                2697.4723544653306817
    Total Energy =                      -3751.8674324904268360

  Dipole Moment: [D]
     X:    -0.0290      Y:    -0.0216      Z:     0.0475     Total:     0.0597

  Basis Set: (AUG-CC-PVQZ AUX)
    Blend: AUG-CC-PVQZ-RI
	 Reference Energy          =   -3751.8674324904268360 [Eh]
	 Singles Energy            =      -0.0000000000000000 [Eh]
	 Same-Spin Energy          =      -0.5092282137806324 [Eh]
	 Opposite-Spin Energy      =      -1.5437450568754134 [Eh]
	 Correlation Energy        =      -2.0529732706560457 [Eh]
	 Total Energy              =   -3753.9204057610827476 [Eh]

	 ================> DF-SCS-MP2 Energies <==================
	-----------------------------------------------------------
	 SCS Same-Spin Scale       =       0.3333333333333333 [-]
	 SCS Opposite-Spin Scale   =       1.2000000000000000 [-]
	 SCS Same-Spin Energy      =      -0.1697427379268775 [Eh]
	 SCS Opposite-Spin Energy  =      -1.8524940682504960 [Eh]
	 SCS Correlation Energy    =      -2.0222368061773737 [Eh]
	 SCS Total Energy          =   -3753.8896692966040973 [Eh]
	-----------------------------------------------------------

*** Psi4 exiting successfully. Buy a developer a beer!
