                               Psi4 1.3.2 release

  ==> Input File <==

--------------------------------------------------------------------------
molecule {
0 1
 Cl                 -0.1579851    -0.2358107     1.5789989
 Cl                 -0.5853312     1.5314563    -0.6626172
 Cl                 -0.0039900    -1.2608089    -1.1136819
 Cl                  2.0634563     0.5020987    -0.1198940
  C                  0.3323723     0.1352885    -0.0797709
--
0 1
  O                 -2.8760900    -1.3127691     2.2464728
  H                 -2.7401255    -2.2601323     2.2447061
  H                 -2.4663300    -0.9475181     1.4620276
}
memory 15GB
set_num_threads(4)
psi4_io.set_default_path("/scratch/bdw2292/Psi4-CCl4")
set maxiter 500
set freeze_core True
set PROPERTIES_ORIGIN ["COM"]
e_dim= energy('mp2/aug-cc-pV[TQ]Z',bsse_type='cp')

psi4.print_out('CP Energy = %10.6f' % (e_dim))
clean()
--------------------------------------------------------------------------

    Molecular point group: c1
  Charge       = 0
  Multiplicity = 1
  Basis Set: AUG-CC-PVTZ
    Blend: AUG-CC-PVTZ
  Basis Set: (AUG-CC-PVTZ AUX)
    Blend: AUG-CC-PVTZ-JKFIT
  @DF-RHF Final Energy:   -76.06046042182510
    Total Energy =                        -76.0604604218250984
  Basis Set: (AUG-CC-PVTZ AUX)
    Blend: AUG-CC-PVTZ-RI
	 Reference Energy          =     -76.0604604218250984 [Eh]
	 Singles Energy            =      -0.0000000000000000 [Eh]
	 Same-Spin Energy          =      -0.0650895806807539 [Eh]
	 Opposite-Spin Energy      =      -0.2029601745264616 [Eh]
	 Correlation Energy        =      -0.2680497552072155 [Eh]
	 Total Energy              =     -76.3285101770323138 [Eh]
	 SCS Total Energy          =     -76.3257091581504312 [Eh]
    Molecular point group: c1
  Basis Set: AUG-CC-PVQZ
    Blend: AUG-CC-PVQZ
  Basis Set: (AUG-CC-PVQZ AUX)
    Blend: AUG-CC-PVQZ-JKFIT
  @DF-RHF Final Energy:   -76.06584912661729
    Total Energy =                        -76.0658491266172803
  Basis Set: (AUG-CC-PVQZ AUX)
  @DF-RHF Final Energy:   -76.06051241301954
    Total Energy =                        -76.0605124130195520
  @DF-RHF Final Energy:   -76.06587095500412
    Total Energy =                        -76.0658709550041152
  @DF-RHF Final Energy: -1875.91646096528007
    Total Energy =                      -1875.9164609652800664
  @DF-RHF Final Energy: -1875.93370526953959
    Total Energy =                      -1875.9337052695395869
  @DF-RHF Final Energy: -1875.91637441353464
    Total Energy =                      -1875.9163744135346406
  @DF-RHF Final Energy: -1875.93368448183264
    Total Energy =                      -1875.9336844818326426
  Multiplicity = 1
  @DF-RHF Final Energy: -1951.97187443464531
    Total Energy =                      -1951.9718744346453150
	 Singles Energy            =      -0.0000000000000000 [Eh]
	 Same-Spin Energy          =      -0.3136699689845932 [Eh]
	 Opposite-Spin Energy      =      -0.9099421405440322 [Eh]
	 Correlation Energy        =      -1.2236121095286254 [Eh]
	 Total Energy              =   -1953.1954865441739457 [Eh]
	 SCS Total Energy          =   -1953.1683616596262709 [Eh]
    Molecular point group: c1

    Geometry (in Angstrom), charge = 0, multiplicity = 1:

       Center              X                  Y                   Z               Mass
    ------------   -----------------  -----------------  -----------------  -----------------
         CL          -0.150702055535    -0.213260850751     1.416426848225    34.968852682000
         CL          -0.578048155535     1.554006149249    -0.825189251775    34.968852682000
         CL           0.003293044465    -1.238259050751    -1.276253951775    34.968852682000
         CL           2.070739344465     0.524648549249    -0.282466051775    34.968852682000
         C            0.339655344465     0.157838349249    -0.242342951775    12.000000000000
         O           -2.868806955535    -1.290219250751     2.083900748225    15.994914619570
         H           -2.732842455535    -2.237582450751     2.082134048225     1.007825032230
         H           -2.459046955535    -0.924968250751     1.299455548225     1.007825032230

  Charge       = 0
  Multiplicity = 1
  Basis Set: AUG-CC-PVQZ
    Blend: AUG-CC-PVQZ
  Basis Set: (AUG-CC-PVQZ AUX)
    Blend: AUG-CC-PVQZ-JKFIT

    Orbital Energies [Eh]
    ---------------------

    Doubly Occupied:

       1A   -104.883220     2A   -104.881578     3A   -104.881484
       4A   -104.880762     5A    -20.556064     6A    -11.501681
       7A    -10.608950     8A    -10.607548     9A    -10.607251
      10A    -10.606390    11A     -8.075917    12A     -8.074443
      13A     -8.074218    14A     -8.073837    15A     -8.073829
      16A     -8.073363    17A     -8.072362    18A     -8.072297
      19A     -8.072120    20A     -8.072114    21A     -8.071260
      22A     -8.071258    23A     -1.346340    24A     -1.287566
      25A     -1.134643    26A     -1.133886    27A     -1.132702
      28A     -0.839902    29A     -0.723510    30A     -0.664200
      31A     -0.663922    32A     -0.663182    33A     -0.575768
      34A     -0.538785    35A     -0.538157    36A     -0.511105
      37A     -0.494716    38A     -0.494128    39A     -0.489422
      40A     -0.466466    41A     -0.466299    42A     -0.463547

  @DF-RHF Final Energy: -1951.99449826901105

   => Energetics <=

    Nuclear Repulsion Energy =            542.9105926126942450
    One-Electron Energy =               -3778.7697955797675604
    Two-Electron Energy =                1283.8647046980624964
    Total Energy =                      -1951.9944982690110464

  Dipole Moment: [D]
     X:     1.1564      Y:    -0.8430      Z:    -1.2572     Total:     1.9049

  Basis Set: (AUG-CC-PVQZ AUX)
    Blend: AUG-CC-PVQZ-RI
	 Reference Energy          =   -1951.9944982690110464 [Eh]
	 Singles Energy            =      -0.0000000000000000 [Eh]
	 Same-Spin Energy          =      -0.3238182467640949 [Eh]
	 Opposite-Spin Energy      =      -0.9927861345097799 [Eh]
	 Correlation Energy        =      -1.3166043812738748 [Eh]
	 Total Energy              =   -1953.3111026502849654 [Eh]

	 ================> DF-SCS-MP2 Energies <==================
	-----------------------------------------------------------
	 SCS Same-Spin Scale       =       0.3333333333333333 [-]
	 SCS Opposite-Spin Scale   =       1.2000000000000000 [-]
	 SCS Same-Spin Energy      =      -0.1079394155880316 [Eh]
	 SCS Opposite-Spin Energy  =      -1.1913433614117359 [Eh]
	 SCS Correlation Energy    =      -1.2992827769997675 [Eh]
	 SCS Total Energy          =   -1953.2937810460107357 [Eh]
	-----------------------------------------------------------

*** Psi4 exiting successfully. Buy a developer a beer!
