                               Psi4 1.3.2 release

  ==> Input File <==

--------------------------------------------------------------------------
molecule {
0 1
 Cl                 -1.3216509    -1.2809349     0.3222521
 Cl                 -0.8136453     1.3984708    -0.6254683
 Cl                  0.5982673    -0.8387328    -1.7959308
 Cl                  1.1940644     0.0026420     0.9073311
  C                 -0.0850511    -0.1807108    -0.3019604
--
0 1
  O                 -1.1952196     0.3712341     3.3796947
  H                 -1.2547226    -0.5590133     3.5964162
  H                 -0.6435717     0.4641642     2.6029273
}
memory 15GB
set_num_threads(4)
psi4_io.set_default_path("/scratch/bdw2292/Psi4-CCl4")
set maxiter 500
set freeze_core True
set PROPERTIES_ORIGIN ["COM"]
e_dim= energy('mp2/aug-cc-pV[TQ]Z',bsse_type='cp')

psi4.print_out('CP Energy = %10.6f' % (e_dim))
clean()
--------------------------------------------------------------------------

    Molecular point group: c1
  Charge       = 0
  Multiplicity = 1
  Basis Set: AUG-CC-PVTZ
    Blend: AUG-CC-PVTZ
  Basis Set: (AUG-CC-PVTZ AUX)
    Blend: AUG-CC-PVTZ-JKFIT
  @DF-RHF Final Energy:   -76.06048004357669
    Total Energy =                        -76.0604800435766890
  Basis Set: (AUG-CC-PVTZ AUX)
    Blend: AUG-CC-PVTZ-RI
	 Reference Energy          =     -76.0604800435766890 [Eh]
	 Singles Energy            =      -0.0000000000000000 [Eh]
	 Same-Spin Energy          =      -0.0650883045902707 [Eh]
	 Opposite-Spin Energy      =      -0.2029563678188629 [Eh]
	 Correlation Energy        =      -0.2680446724091335 [Eh]
	 Total Energy              =     -76.3285247159858216 [Eh]
	 SCS Total Energy          =     -76.3257237864894194 [Eh]
    Molecular point group: c1
  Basis Set: AUG-CC-PVQZ
    Blend: AUG-CC-PVQZ
  Basis Set: (AUG-CC-PVQZ AUX)
    Blend: AUG-CC-PVQZ-JKFIT
  @DF-RHF Final Energy:   -76.06586944563523
    Total Energy =                        -76.0658694456352293
  Basis Set: (AUG-CC-PVQZ AUX)
  @DF-RHF Final Energy:   -76.06053814384208
    Total Energy =                        -76.0605381438420807
  @DF-RHF Final Energy:   -76.06589267405047
    Total Energy =                        -76.0658926740504739
  @DF-RHF Final Energy: -1875.91649496384525
    Total Energy =                      -1875.9164949638452526
  @DF-RHF Final Energy: -1875.93371471952196
    Total Energy =                      -1875.9337147195219586
  @DF-RHF Final Energy: -1875.91637473106584
    Total Energy =                      -1875.9163747310658437
  @DF-RHF Final Energy: -1875.93368661179238
    Total Energy =                      -1875.9336866117923819
  Multiplicity = 1
  @DF-RHF Final Energy: -1951.97374430349214
    Total Energy =                      -1951.9737443034921398
	 Singles Energy            =      -0.0000000000000000 [Eh]
	 Same-Spin Energy          =      -0.3137506250542431 [Eh]
	 Opposite-Spin Energy      =      -0.9101956456634044 [Eh]
	 Correlation Energy        =      -1.2239462707176476 [Eh]
	 Total Energy              =   -1953.1976905742099007 [Eh]
	 SCS Total Energy          =   -1953.1705626199729977 [Eh]
    Molecular point group: c1

    Geometry (in Angstrom), charge = 0, multiplicity = 1:

       Center              X                  Y                   Z               Mass
    ------------   -----------------  -----------------  -----------------  -----------------
         CL          -1.121256063635    -1.154654295884     0.233923312048    34.968852682000
         CL          -0.613250463635     1.524751404116    -0.713797087952    34.968852682000
         CL           0.798662136365    -0.712452195884    -1.884259587952    34.968852682000
         CL           1.394459236365     0.128922604116     0.819002312048    34.968852682000
         C            0.115343736365    -0.054430195884    -0.390289187952    12.000000000000
         O           -0.994824763635     0.497514704116     3.291365912048    15.994914619570
         H           -1.054327763635    -0.432732695884     3.508087412048     1.007825032230
         H           -0.443176863635     0.590444804116     2.514598512048     1.007825032230

  Charge       = 0
  Multiplicity = 1
  Basis Set: AUG-CC-PVQZ
    Blend: AUG-CC-PVQZ
  Basis Set: (AUG-CC-PVQZ AUX)
    Blend: AUG-CC-PVQZ-JKFIT

    Orbital Energies [Eh]
    ---------------------

    Doubly Occupied:

       1A   -104.888890     2A   -104.884154     3A   -104.884059
       4A   -104.883399     5A    -20.553168     6A    -11.505553
       7A    -10.614810     8A    -10.609977     9A    -10.609650
      10A    -10.609044    11A     -8.081750    12A     -8.079716
      13A     -8.079669    14A     -8.076937    15A     -8.076622
      16A     -8.076011    17A     -8.074845    18A     -8.074827
      19A     -8.074510    20A     -8.074507    21A     -8.073893
      22A     -8.073886    23A     -1.342382    24A     -1.291167
      25A     -1.139779    26A     -1.136162    27A     -1.135181
      28A     -0.842969    29A     -0.719123    30A     -0.668339
      31A     -0.666949    32A     -0.666410    33A     -0.574466
      34A     -0.541891    35A     -0.539609    36A     -0.504001
      37A     -0.497725    38A     -0.497257    39A     -0.495000
      40A     -0.470321    41A     -0.469755    42A     -0.467677

  @DF-RHF Final Energy: -1951.99635876948400

   => Energetics <=

    Nuclear Repulsion Energy =            548.6013899033246162
    One-Electron Energy =               -3789.9434167848121433
    Two-Electron Energy =                1289.3456681120035228
    Total Energy =                      -1951.9963587694840044

  Dipole Moment: [D]
     X:     0.8608      Y:    -1.4227      Z:    -1.3513     Total:     2.1427

  Basis Set: (AUG-CC-PVQZ AUX)
    Blend: AUG-CC-PVQZ-RI
	 Reference Energy          =   -1951.9963587694840044 [Eh]
	 Singles Energy            =      -0.0000000000000000 [Eh]
	 Same-Spin Energy          =      -0.3238734428949857 [Eh]
	 Opposite-Spin Energy      =      -0.9929108563382627 [Eh]
	 Correlation Energy        =      -1.3167842992332484 [Eh]
	 Total Energy              =   -1953.3131430687171814 [Eh]

	 ================> DF-SCS-MP2 Energies <==================
	-----------------------------------------------------------
	 SCS Same-Spin Scale       =       0.3333333333333333 [-]
	 SCS Opposite-Spin Scale   =       1.2000000000000000 [-]
	 SCS Same-Spin Energy      =      -0.1079578142983285 [Eh]
	 SCS Opposite-Spin Energy  =      -1.1914930276059152 [Eh]
	 SCS Correlation Energy    =      -1.2994508419042439 [Eh]
	 SCS Total Energy          =   -1953.2958096113882220 [Eh]
	-----------------------------------------------------------

*** Psi4 exiting successfully. Buy a developer a beer!
