                               Psi4 1.3.2 release

  ==> Input File <==

--------------------------------------------------------------------------
molecule {
0 1
 Cl                 -0.9834540    -0.5863909     1.9222969
 Cl                 -1.0203298     1.3185487    -0.2497215
 Cl                 -0.3649296    -1.4476266    -0.7655753
 Cl                  1.4944115     0.2308771     0.6813521
  C                 -0.2163540    -0.1195090     0.3969557
--
0 1
  O                  2.1899247     1.1544326    -4.2674177
  H                  1.4752569     0.5211786    -4.1963049
  H                  2.1149789     1.6020895    -5.1100096
}
memory 15GB
set_num_threads(4)
psi4_io.set_default_path("/scratch/bdw2292/Psi4-CCl4")
set maxiter 500
set freeze_core True
set PROPERTIES_ORIGIN ["COM"]
e_dim= energy('mp2/aug-cc-pV[TQ]Z',bsse_type='cp')

psi4.print_out('CP Energy = %10.6f' % (e_dim))
clean()
--------------------------------------------------------------------------

    Molecular point group: c1
  Charge       = 0
  Multiplicity = 1
  Basis Set: AUG-CC-PVTZ
    Blend: AUG-CC-PVTZ
  Basis Set: (AUG-CC-PVTZ AUX)
    Blend: AUG-CC-PVTZ-JKFIT
  @DF-RHF Final Energy:   -76.06044970426798
    Total Energy =                        -76.0604497042679952
  Basis Set: (AUG-CC-PVTZ AUX)
    Blend: AUG-CC-PVTZ-RI
	 Reference Energy          =     -76.0604497042679810 [Eh]
	 Singles Energy            =      -0.0000000000000000 [Eh]
	 Same-Spin Energy          =      -0.0650895903647447 [Eh]
	 Opposite-Spin Energy      =      -0.2029598397981213 [Eh]
	 Correlation Energy        =      -0.2680494301628659 [Eh]
	 Total Energy              =     -76.3284991344308423 [Eh]
	 SCS Total Energy          =     -76.3256980421473088 [Eh]
    Molecular point group: c1
  Basis Set: AUG-CC-PVQZ
    Blend: AUG-CC-PVQZ
  Basis Set: (AUG-CC-PVQZ AUX)
    Blend: AUG-CC-PVQZ-JKFIT
  @DF-RHF Final Energy:   -76.06583816389605
    Total Energy =                        -76.0658381638960464
  Basis Set: (AUG-CC-PVQZ AUX)
  @DF-RHF Final Energy:   -76.06045525737922
    Total Energy =                        -76.0604552573792176
  @DF-RHF Final Energy:   -76.06584098798724
    Total Energy =                        -76.0658409879872437
  @DF-RHF Final Energy: -1875.91638438964969
    Total Energy =                      -1875.9163843896496928
  @DF-RHF Final Energy: -1875.93367442115209
    Total Energy =                      -1875.9336744211520909
  @DF-RHF Final Energy: -1875.91636516048243
    Total Energy =                      -1875.9163651604824281
  @DF-RHF Final Energy: -1875.93366824684585
    Total Energy =                      -1875.9336682468458548
  Multiplicity = 1
  @DF-RHF Final Energy: -1951.97686139667439
    Total Energy =                      -1951.9768613966743942
	 Singles Energy            =      -0.0000000000000000 [Eh]
	 Same-Spin Energy          =      -0.3116451694815729 [Eh]
	 Opposite-Spin Energy      =      -0.9074759130469340 [Eh]
	 Correlation Energy        =      -1.2191210825285070 [Eh]
	 Total Energy              =   -1953.1959824792029394 [Eh]
	 SCS Total Energy          =   -1953.1697142154912399 [Eh]
    Molecular point group: c1

    Geometry (in Angstrom), charge = 0, multiplicity = 1:

       Center              X                  Y                   Z               Mass
    ------------   -----------------  -----------------  -----------------  -----------------
         CL          -1.015689773181    -0.599489155102     2.024305296735    34.968852682000
         CL          -1.052565573181     1.305450444898    -0.147713103265    34.968852682000
         CL          -0.397165373181    -1.460724855102    -0.663566903265    34.968852682000
         CL           1.462175726819     0.217778844898     0.783360496735    34.968852682000
         C           -0.248589773181    -0.132607255102     0.498964096735    12.000000000000
         O            2.157688926819     1.141334344898    -4.165409303265    15.994914619570
         H            1.443021126819     0.508080344898    -4.094296503265     1.007825032230
         H            2.082743126819     1.588991244898    -5.008001203265     1.007825032230

  Charge       = 0
  Multiplicity = 1
  Basis Set: AUG-CC-PVQZ
    Blend: AUG-CC-PVQZ
  Basis Set: (AUG-CC-PVQZ AUX)
    Blend: AUG-CC-PVQZ-JKFIT

    Orbital Energies [Eh]
    ---------------------

    Doubly Occupied:

       1A   -104.876480     2A   -104.875380     3A   -104.875310
       4A   -104.874325     5A    -20.561923     6A    -11.496170
       7A    -10.602168     8A    -10.601043     9A    -10.600989
      10A    -10.599937    11A     -8.069138    12A     -8.068014
      13A     -8.067960    14A     -8.067061    15A     -8.067058
      16A     -8.066908    17A     -8.065920    18A     -8.065916
      19A     -8.065867    20A     -8.065865    21A     -8.064797
      22A     -8.064794    23A     -1.349018    24A     -1.280374
      25A     -1.127315    26A     -1.126667    27A     -1.125979
      28A     -0.833004    29A     -0.724142    30A     -0.657324
      31A     -0.657014    32A     -0.656721    33A     -0.576301
      34A     -0.531323    35A     -0.530946    36A     -0.508278
      37A     -0.488416    38A     -0.487774    39A     -0.487695
      40A     -0.460202    41A     -0.459734    42A     -0.459130

  @DF-RHF Final Energy: -1951.99953705265602

   => Energetics <=

    Nuclear Repulsion Energy =            519.7377810294007077
    One-Electron Energy =               -3732.8938782195964450
    Two-Electron Energy =                1261.1565601375398273
    Total Energy =                      -1951.9995370526560237

  Dipole Moment: [D]
     X:    -1.2498      Y:    -0.2430      Z:    -1.2613     Total:     1.7921

  Basis Set: (AUG-CC-PVQZ AUX)
    Blend: AUG-CC-PVQZ-RI
	 Reference Energy          =   -1951.9995370526560237 [Eh]
	 Singles Energy            =      -0.0000000000000000 [Eh]
	 Same-Spin Energy          =      -0.3217624948120886 [Eh]
	 Opposite-Spin Energy      =      -0.9904044369828424 [Eh]
	 Correlation Energy        =      -1.3121669317949309 [Eh]
	 Total Energy              =   -1953.3117039844510145 [Eh]

	 ================> DF-SCS-MP2 Energies <==================
	-----------------------------------------------------------
	 SCS Same-Spin Scale       =       0.3333333333333333 [-]
	 SCS Opposite-Spin Scale   =       1.2000000000000000 [-]
	 SCS Same-Spin Energy      =      -0.1072541649373629 [Eh]
	 SCS Opposite-Spin Energy  =      -1.1884853243794109 [Eh]
	 SCS Correlation Energy    =      -1.2957394893167737 [Eh]
	 SCS Total Energy          =   -1953.2952765419727257 [Eh]
	-----------------------------------------------------------

*** Psi4 exiting successfully. Buy a developer a beer!
