                               Psi4 1.3.2 release

  ==> Input File <==

--------------------------------------------------------------------------
molecule {
0 1
 Cl                 -1.5149002    -0.4329419     0.6007099
 Cl                 -1.6714920     1.8711931    -1.1316761
 Cl                 -2.5967290    -0.7042083    -2.0629299
 Cl                  0.2287502    -0.2297564    -1.6989855
  C                 -1.3875751     0.1256205    -1.0727028
--
0 1
 Cl                  0.4377908    -1.4620097     3.0775845
 Cl                  2.0132356     0.0508609     1.1827486
 Cl                  1.2245587    -2.6637465     0.5665454
 Cl                  3.2004859    -2.1603418     2.6121214
  C                  1.7172168    -1.5581556     1.8579231
}
memory 15GB
set_num_threads(4)
psi4_io.set_default_path("/scratch/bdw2292/Psi4-CCl4")
set maxiter 500
set freeze_core True
set PROPERTIES_ORIGIN ["COM"]
e_dim= energy('mp2/aug-cc-pV[TQ]Z',bsse_type='cp')

psi4.print_out('CP Energy = %10.6f' % (e_dim))
clean()
--------------------------------------------------------------------------

    Molecular point group: c1
  Charge       = 0
  Multiplicity = 1
  Basis Set: AUG-CC-PVTZ
    Blend: AUG-CC-PVTZ
  Basis Set: (AUG-CC-PVTZ AUX)
    Blend: AUG-CC-PVTZ-JKFIT
  @DF-RHF Final Energy: -1875.91637004215568
    Total Energy =                      -1875.9163700421556769
  Basis Set: (AUG-CC-PVTZ AUX)
    Blend: AUG-CC-PVTZ-RI
	 Reference Energy          =   -1875.9163700421556769 [Eh]
	 Singles Energy            =      -0.0000000000000000 [Eh]
	 Same-Spin Energy          =      -0.2463651759090572 [Eh]
	 Opposite-Spin Energy      =      -0.7042355714960566 [Eh]
	 Correlation Energy        =      -0.9506007474051138 [Eh]
	 Total Energy              =   -1876.8669707895608099 [Eh]
	 SCS Total Energy          =   -1876.8435744532539502 [Eh]
    Molecular point group: c1
  Basis Set: AUG-CC-PVQZ
    Blend: AUG-CC-PVQZ
  Basis Set: (AUG-CC-PVQZ AUX)
    Blend: AUG-CC-PVQZ-JKFIT
  @DF-RHF Final Energy: -1875.93367562056847
    Total Energy =                      -1875.9336756205684651
  Basis Set: (AUG-CC-PVQZ AUX)
  @DF-RHF Final Energy: -1875.91654778459156
    Total Energy =                      -1875.9165477845915575
  @DF-RHF Final Energy: -1875.93371282220392
    Total Energy =                      -1875.9337128222039155
  @DF-RHF Final Energy: -1875.91655207237272
    Total Energy =                      -1875.9165520723727241
  @DF-RHF Final Energy: -1875.93373215788256
    Total Energy =                      -1875.9337321578825595
  @DF-RHF Final Energy: -1875.91638573955265
    Total Energy =                      -1875.9163857395526520
  @DF-RHF Final Energy: -1875.93369820769567
    Total Energy =                      -1875.9336982076956701
  Multiplicity = 1
  @DF-RHF Final Energy: -3751.82122795925716
    Total Energy =                      -3751.8212279592571576
	 Singles Energy            =      -0.0000000000000000 [Eh]
	 Same-Spin Energy          =      -0.4998861631696367 [Eh]
	 Opposite-Spin Energy      =      -1.4169045529675226 [Eh]
	 Correlation Energy        =      -1.9167907161371593 [Eh]
	 Total Energy              =   -3753.7380186753944145 [Eh]
	 SCS Total Energy          =   -3753.6881421438747566 [Eh]
    Molecular point group: c1

    Geometry (in Angstrom), charge = 0, multiplicity = 1:

       Center              X                  Y                   Z               Mass
    ------------   -----------------  -----------------  -----------------  -----------------
         CL          -1.680081754899     0.283418923046     0.207496836805    34.968852682000
         CL          -1.836673554899     2.587553923046    -1.524889163195    34.968852682000
         CL          -2.761910554899     0.012152523046    -2.456142963195    34.968852682000
         CL           0.063568645101     0.486604423046    -2.092198563195    34.968852682000
         C           -1.552756654899     0.841981323046    -1.465915863195    12.000000000000
         CL           0.272609245101    -0.745648876954     2.684371436805    34.968852682000
         CL           1.848054045101     0.767221723046     0.789535536805    34.968852682000
         CL           1.059377145101    -1.947385676954     0.173332336805    34.968852682000
         CL           3.035304345101    -1.443980976954     2.218908336805    34.968852682000
         C            1.552035245101    -0.841794776954     1.464710036805    12.000000000000

  Charge       = 0
  Multiplicity = 1
  Basis Set: AUG-CC-PVQZ
    Blend: AUG-CC-PVQZ
  Basis Set: (AUG-CC-PVQZ AUX)
    Blend: AUG-CC-PVQZ-JKFIT

    Orbital Energies [Eh]
    ---------------------

    Doubly Occupied:

       1A   -104.875903     2A   -104.875304     3A   -104.874564
       4A   -104.874312     5A   -104.873391     6A   -104.873364
       7A   -104.872375     8A   -104.871762     9A    -11.496372
      10A    -11.494466    11A    -10.601820    12A    -10.601001
      13A    -10.600277    14A    -10.600030    15A    -10.599363
      16A    -10.599352    17A    -10.598504    18A    -10.597880
      19A     -8.068778    20A     -8.067969    21A     -8.067249
      22A     -8.067001    23A     -8.066718    24A     -8.066701
      25A     -8.066309    26A     -8.066300    27A     -8.065876
      28A     -8.065874    29A     -8.065432    30A     -8.065161
      31A     -8.065159    32A     -8.064914    33A     -8.064912
      34A     -8.064814    35A     -8.064226    36A     -8.064220
      37A     -8.064218    38A     -8.064207    39A     -8.063323
      40A     -8.063297    41A     -8.062743    42A     -8.062726
      43A     -1.281970    44A     -1.278754    45A     -1.129759
      46A     -1.128752    47A     -1.126681    48A     -1.126029
      49A     -1.124377    50A     -1.123674    51A     -0.836052
      52A     -0.829909    53A     -0.662281    54A     -0.659565
      55A     -0.659118    56A     -0.655309    57A     -0.654776
      58A     -0.653571    59A     -0.541663    60A     -0.534290
      61A     -0.530075    62A     -0.527072    63A     -0.502702
      64A     -0.489548    65A     -0.488920    66A     -0.488360
      67A     -0.487359    68A     -0.464545    69A     -0.463825
      70A     -0.462134    71A     -0.461421    72A     -0.456874
      73A     -0.454559    74A     -0.451464

  @DF-RHF Final Energy: -3751.85559827857242

   => Energetics <=

    Nuclear Repulsion Energy =           1493.0469172666182658
    One-Electron Energy =               -8163.6379280687233404
    Two-Electron Energy =                2918.7354125235328866
    Total Energy =                      -3751.8555982785724154

  Dipole Moment: [D]
     X:     0.0541      Y:    -0.0160      Z:     0.0060     Total:     0.0567

  Basis Set: (AUG-CC-PVQZ AUX)
    Blend: AUG-CC-PVQZ-RI
	 Reference Energy          =   -3751.8555982785724154 [Eh]
	 Singles Energy            =      -0.0000000000000000 [Eh]
	 Same-Spin Energy          =      -0.5161605052266471 [Eh]
	 Opposite-Spin Energy      =      -1.5516009415472927 [Eh]
	 Correlation Energy        =      -2.0677614467739396 [Eh]
	 Total Energy              =   -3753.9233597253464723 [Eh]

	 ================> DF-SCS-MP2 Energies <==================
	-----------------------------------------------------------
	 SCS Same-Spin Scale       =       0.3333333333333333 [-]
	 SCS Opposite-Spin Scale   =       1.2000000000000000 [-]
	 SCS Same-Spin Energy      =      -0.1720535017422157 [Eh]
	 SCS Opposite-Spin Energy  =      -1.8619211298567511 [Eh]
	 SCS Correlation Energy    =      -2.0339746315989666 [Eh]
	 SCS Total Energy          =   -3753.8895729101714096 [Eh]
	-----------------------------------------------------------

*** Psi4 exiting successfully. Buy a developer a beer!
