                               Psi4 1.3.2 release

  ==> Input File <==

--------------------------------------------------------------------------
molecule {
0 1
 Cl                 -0.9834540    -0.5863909     1.9222969
 Cl                 -1.0203298     1.3185487    -0.2497215
 Cl                 -0.3649296    -1.4476266    -0.7655753
 Cl                  1.4944115     0.2308771     0.6813521
  C                 -0.2163540    -0.1195090     0.3969557
--
0 1
  O                  1.8461706     0.9724409    -3.6010786
  H                  1.1315028     0.3391869    -3.5299659
  H                  1.7712248     1.4200979    -4.4436706
}
memory 15GB
set_num_threads(4)
psi4_io.set_default_path("/scratch/bdw2292/Psi4-CCl4")
set maxiter 500
set freeze_core True
set PROPERTIES_ORIGIN ["COM"]
e_dim= energy('mp2/aug-cc-pV[TQ]Z',bsse_type='cp')

psi4.print_out('CP Energy = %10.6f' % (e_dim))
clean()
--------------------------------------------------------------------------

    Molecular point group: c1
  Charge       = 0
  Multiplicity = 1
  Basis Set: AUG-CC-PVTZ
    Blend: AUG-CC-PVTZ
  Basis Set: (AUG-CC-PVTZ AUX)
    Blend: AUG-CC-PVTZ-JKFIT
  @DF-RHF Final Energy:   -76.06044970022550
    Total Energy =                        -76.0604497002255044
  Basis Set: (AUG-CC-PVTZ AUX)
    Blend: AUG-CC-PVTZ-RI
	 Reference Energy          =     -76.0604497002255044 [Eh]
	 Singles Energy            =      -0.0000000000000000 [Eh]
	 Same-Spin Energy          =      -0.0650895915580478 [Eh]
	 Opposite-Spin Energy      =      -0.2029598438319974 [Eh]
	 Correlation Energy        =      -0.2680494353900452 [Eh]
	 Total Energy              =     -76.3284991356155444 [Eh]
	 SCS Total Energy          =     -76.3256980433432517 [Eh]
    Molecular point group: c1
  Basis Set: AUG-CC-PVQZ
    Blend: AUG-CC-PVQZ
  Basis Set: (AUG-CC-PVQZ AUX)
    Blend: AUG-CC-PVQZ-JKFIT
  @DF-RHF Final Energy:   -76.06583815953745
    Total Energy =                        -76.0658381595374493
  Basis Set: (AUG-CC-PVQZ AUX)
  @DF-RHF Final Energy:   -76.06046036020916
    Total Energy =                        -76.0604603602091487
  @DF-RHF Final Energy:   -76.06584473576095
    Total Energy =                        -76.0658447357609475
  @DF-RHF Final Energy: -1875.91640842976130
    Total Energy =                      -1875.9164084297613044
  @DF-RHF Final Energy: -1875.93368064936703
    Total Energy =                      -1875.9336806493670338
  @DF-RHF Final Energy: -1875.91636515942037
    Total Energy =                      -1875.9163651594203657
  @DF-RHF Final Energy: -1875.93366824674445
    Total Energy =                      -1875.9336682467444462
  Multiplicity = 1
  @DF-RHF Final Energy: -1951.97686418803210
    Total Energy =                      -1951.9768641880320956
	 Singles Energy            =      -0.0000000000000000 [Eh]
	 Same-Spin Energy          =      -0.3119648720797592 [Eh]
	 Opposite-Spin Energy      =      -0.9078925747069261 [Eh]
	 Correlation Energy        =      -1.2198574467866852 [Eh]
	 Total Energy              =   -1953.1967216348186867 [Eh]
	 SCS Total Energy          =   -1953.1703235683737603 [Eh]
    Molecular point group: c1

    Geometry (in Angstrom), charge = 0, multiplicity = 1:

       Center              X                  Y                   Z               Mass
    ------------   -----------------  -----------------  -----------------  -----------------
         CL          -0.979246473853    -0.580195195279     1.953662954238    34.968852682000
         CL          -1.016122273853     1.324744404721    -0.218355445762    34.968852682000
         CL          -0.360722073853    -1.441430895279    -0.734209245762    34.968852682000
         CL           1.498619026147     0.237072804721     0.712718154238    34.968852682000
         C           -0.212146473853    -0.113313295279     0.428321754238    12.000000000000
         O            1.850378126147     0.978636604721    -3.569712545762    15.994914619570
         H            1.135710326147     0.345382604721    -3.498599845762     1.007825032230
         H            1.775432326147     1.426293604721    -4.412304545762     1.007825032230

  Charge       = 0
  Multiplicity = 1
  Basis Set: AUG-CC-PVQZ
    Blend: AUG-CC-PVQZ
  Basis Set: (AUG-CC-PVQZ AUX)
    Blend: AUG-CC-PVQZ-JKFIT

    Orbital Energies [Eh]
    ---------------------

    Doubly Occupied:

       1A   -104.877352     2A   -104.875173     3A   -104.875025
       4A   -104.873259     5A    -20.561236     6A    -11.496012
       7A    -10.603062     8A    -10.600853     9A    -10.600689
      10A    -10.598853    11A     -8.070033    12A     -8.067967
      13A     -8.067961    14A     -8.067824    15A     -8.067661
      16A     -8.065824    17A     -8.065731    18A     -8.065729
      19A     -8.065566    20A     -8.065560    21A     -8.063706
      22A     -8.063700    23A     -1.348406    24A     -1.280219
      25A     -1.127896    26A     -1.126405    27A     -1.125179
      28A     -0.832854    29A     -0.723591    30A     -0.657481
      31A     -0.656813    32A     -0.656289    33A     -0.575757
      34A     -0.531241    35A     -0.530798    36A     -0.507809
      37A     -0.488328    38A     -0.487483    39A     -0.487467
      40A     -0.460487    41A     -0.459535    42A     -0.458448

  @DF-RHF Final Energy: -1951.99952768061212

   => Energetics <=

    Nuclear Repulsion Energy =            530.9022740880760693
    One-Electron Energy =               -3755.2410782257265964
    Two-Electron Energy =                1272.3392764570385225
    Total Energy =                      -1951.9995276806121183

  Dipole Moment: [D]
     X:    -1.2065      Y:    -0.2074      Z:    -1.2293     Total:     1.7349

  Basis Set: (AUG-CC-PVQZ AUX)
    Blend: AUG-CC-PVQZ-RI
	 Reference Energy          =   -1951.9995276806121183 [Eh]
	 Singles Energy            =      -0.0000000000000000 [Eh]
	 Same-Spin Energy          =      -0.3220806615496439 [Eh]
	 Opposite-Spin Energy      =      -0.9907802133270804 [Eh]
	 Correlation Energy        =      -1.3128608748767243 [Eh]
	 Total Energy              =   -1953.3123885554889512 [Eh]

	 ================> DF-SCS-MP2 Energies <==================
	-----------------------------------------------------------
	 SCS Same-Spin Scale       =       0.3333333333333333 [-]
	 SCS Opposite-Spin Scale   =       1.2000000000000000 [-]
	 SCS Same-Spin Energy      =      -0.1073602205165479 [Eh]
	 SCS Opposite-Spin Energy  =      -1.1889362559924965 [Eh]
	 SCS Correlation Energy    =      -1.2962964765090446 [Eh]
	 SCS Total Energy          =   -1953.2958241571211602 [Eh]
	-----------------------------------------------------------

*** Psi4 exiting successfully. Buy a developer a beer!
