                               Psi4 1.3.2 release

  ==> Input File <==

--------------------------------------------------------------------------
molecule {
0 1
 Cl                 -1.5149002    -0.4329419     0.6007099
 Cl                 -1.6714920     1.8711931    -1.1316761
 Cl                 -2.5967290    -0.7042083    -2.0629299
 Cl                  0.2287502    -0.2297564    -1.6989855
  C                 -1.3875751     0.1256205    -1.0727028
--
0 1
 Cl                  0.3293079    -1.4048392     2.9399803
 Cl                  1.9047528     0.1080314     1.0451444
 Cl                  1.1160758    -2.6065760     0.4289413
 Cl                  3.0920031    -2.1031714     2.4745173
  C                  1.6087340    -1.5009851     1.7203189
}
memory 15GB
set_num_threads(4)
psi4_io.set_default_path("/scratch/bdw2292/Psi4-CCl4")
set maxiter 500
set freeze_core True
set PROPERTIES_ORIGIN ["COM"]
e_dim= energy('mp2/aug-cc-pV[TQ]Z',bsse_type='cp')

psi4.print_out('CP Energy = %10.6f' % (e_dim))
clean()
--------------------------------------------------------------------------

    Molecular point group: c1
  Charge       = 0
  Multiplicity = 1
  Basis Set: AUG-CC-PVTZ
    Blend: AUG-CC-PVTZ
  Basis Set: (AUG-CC-PVTZ AUX)
    Blend: AUG-CC-PVTZ-JKFIT
  @DF-RHF Final Energy: -1875.91637004215954
    Total Energy =                      -1875.9163700421595422
  Basis Set: (AUG-CC-PVTZ AUX)
    Blend: AUG-CC-PVTZ-RI
	 Reference Energy          =   -1875.9163700421595422 [Eh]
	 Singles Energy            =      -0.0000000000000000 [Eh]
	 Same-Spin Energy          =      -0.2463651752423048 [Eh]
	 Opposite-Spin Energy      =      -0.7042355724292739 [Eh]
	 Correlation Energy        =      -0.9506007476715788 [Eh]
	 Total Energy              =   -1876.8669707898311572 [Eh]
	 SCS Total Energy          =   -1876.8435744541554868 [Eh]
    Molecular point group: c1
  Basis Set: AUG-CC-PVQZ
    Blend: AUG-CC-PVQZ
  Basis Set: (AUG-CC-PVQZ AUX)
    Blend: AUG-CC-PVQZ-JKFIT
  @DF-RHF Final Energy: -1875.93367561901641
    Total Energy =                      -1875.9336756190164124
  Basis Set: (AUG-CC-PVQZ AUX)
  @DF-RHF Final Energy: -1875.91656759858074
    Total Energy =                      -1875.9165675985807411
  @DF-RHF Final Energy: -1875.93371758605463
    Total Energy =                      -1875.9337175860546267
  @DF-RHF Final Energy: -1875.91657461804675
    Total Energy =                      -1875.9165746180467522
  @DF-RHF Final Energy: -1875.93373649719183
    Total Energy =                      -1875.9337364971918305
  @DF-RHF Final Energy: -1875.91638573948762
    Total Energy =                      -1875.9163857394876231
  @DF-RHF Final Energy: -1875.93369820816065
    Total Energy =                      -1875.9336982081606493
  Multiplicity = 1
  @DF-RHF Final Energy: -3751.81333665732154
    Total Energy =                      -3751.8133366573215426
	 Singles Energy            =      -0.0000000000000000 [Eh]
	 Same-Spin Energy          =      -0.5019688865871235 [Eh]
	 Opposite-Spin Energy      =      -1.4193018921566942 [Eh]
	 Correlation Energy        =      -1.9212707787438177 [Eh]
	 Total Energy              =   -3753.7346074360652892 [Eh]
	 SCS Total Energy          =   -3753.6838218901052642 [Eh]
    Molecular point group: c1

    Geometry (in Angstrom), charge = 0, multiplicity = 1:

       Center              X                  Y                   Z               Mass
    ------------   -----------------  -----------------  -----------------  -----------------
         CL          -1.625840331874     0.254833684559     0.276298913780    34.968852682000
         CL          -1.782432131874     2.558968684559    -1.456087086220    34.968852682000
         CL          -2.707669131874    -0.016432715441    -2.387340886220    34.968852682000
         CL           0.117810068126     0.458019184559    -2.023396486220    34.968852682000
         C           -1.498515231874     0.813396084559    -1.397113786220    12.000000000000
         CL           0.218367768126    -0.717063615441     2.615569313780    34.968852682000
         CL           1.793812668126     0.795806984559     0.720733413780    34.968852682000
         CL           1.005135668126    -1.918800415441     0.104530313780    34.968852682000
         CL           2.981062968126    -1.415395815441     2.150106313780    34.968852682000
         C            1.497793868126    -0.813209515441     1.395907913780    12.000000000000

  Charge       = 0
  Multiplicity = 1
  Basis Set: AUG-CC-PVQZ
    Blend: AUG-CC-PVQZ
  Basis Set: (AUG-CC-PVQZ AUX)
    Blend: AUG-CC-PVQZ-JKFIT

    Orbital Energies [Eh]
    ---------------------

    Doubly Occupied:

       1A   -104.875426     2A   -104.875342     3A   -104.874187
       4A   -104.873810     5A   -104.872671     6A   -104.872572
       7A   -104.871396     8A   -104.870029     9A    -11.496412
      10A    -11.493739    11A    -10.601510    12A    -10.601030
      13A    -10.599909    14A    -10.599541    15A    -10.598799
      16A    -10.598749    17A    -10.597765    18A    -10.596425
      19A     -8.068450    20A     -8.067996    21A     -8.066880
      22A     -8.066512    23A     -8.066415    24A     -8.066380
      25A     -8.065903    26A     -8.065901    27A     -8.065729
      28A     -8.065671    29A     -8.064796    30A     -8.064793
      31A     -8.064664    32A     -8.064427    33A     -8.064424
      34A     -8.063663    35A     -8.063644    36A     -8.063613
      37A     -8.063583    38A     -8.063325    39A     -8.062545
      40A     -8.062499    41A     -8.061281    42A     -8.061246
      43A     -1.282770    44A     -1.277879    45A     -1.131444
      46A     -1.129817    47A     -1.126842    48A     -1.125625
      49A     -1.123153    50A     -1.122458    51A     -0.837203
      52A     -0.828915    53A     -0.664435    54A     -0.660528
      55A     -0.660070    56A     -0.654735    57A     -0.654011
      58A     -0.652771    59A     -0.544926    60A     -0.535616
      61A     -0.530353    62A     -0.526760    63A     -0.504606
      64A     -0.490152    65A     -0.489583    66A     -0.488591
      67A     -0.487141    68A     -0.465499    69A     -0.463561
      70A     -0.461676    71A     -0.456717    72A     -0.456091
      73A     -0.451701    74A     -0.448046

  @DF-RHF Final Energy: -3751.84771290885510

   => Energetics <=

    Nuclear Repulsion Energy =           1516.1116835509783414
    One-Electron Energy =               -8209.8041503006770654
    Two-Electron Energy =                2941.8447538408436230
    Total Energy =                      -3751.8477129088551010

  Dipole Moment: [D]
     X:     0.0716      Y:    -0.0233      Z:     0.0185     Total:     0.0775

  Basis Set: (AUG-CC-PVQZ AUX)
    Blend: AUG-CC-PVQZ-RI
	 Reference Energy          =   -3751.8477129088551010 [Eh]
	 Singles Energy            =      -0.0000000000000000 [Eh]
	 Same-Spin Energy          =      -0.5183243425377023 [Eh]
	 Opposite-Spin Energy      =      -1.5540802355299119 [Eh]
	 Correlation Energy        =      -2.0724045780676144 [Eh]
	 Total Energy              =   -3753.9201174869226634 [Eh]

	 ================> DF-SCS-MP2 Energies <==================
	-----------------------------------------------------------
	 SCS Same-Spin Scale       =       0.3333333333333333 [-]
	 SCS Opposite-Spin Scale   =       1.2000000000000000 [-]
	 SCS Same-Spin Energy      =      -0.1727747808459008 [Eh]
	 SCS Opposite-Spin Energy  =      -1.8648962826358941 [Eh]
	 SCS Correlation Energy    =      -2.0376710634817949 [Eh]
	 SCS Total Energy          =   -3753.8853839723369674 [Eh]
	-----------------------------------------------------------

*** Psi4 exiting successfully. Buy a developer a beer!
