                               Psi4 1.3.2 release

  ==> Input File <==

--------------------------------------------------------------------------
molecule {
0 1
 Cl                 -1.3216509    -1.2809349     0.3222521
 Cl                 -0.8136453     1.3984708    -0.6254683
 Cl                  0.5982673    -0.8387328    -1.7959308
 Cl                  1.1940644     0.0026420     0.9073311
  C                 -0.0850511    -0.1807108    -0.3019604
--
0 1
  O                 -1.1803466     0.5316611     4.1072867
  H                 -1.2398496    -0.3985863     4.3240083
  H                 -0.6286988     0.6245912     3.3305193
}
memory 15GB
set_num_threads(4)
psi4_io.set_default_path("/scratch/bdw2292/Psi4-CCl4")
set maxiter 500
set freeze_core True
set PROPERTIES_ORIGIN ["COM"]
e_dim= energy('mp2/aug-cc-pV[TQ]Z',bsse_type='cp')

psi4.print_out('CP Energy = %10.6f' % (e_dim))
clean()
--------------------------------------------------------------------------

    Molecular point group: c1
  Charge       = 0
  Multiplicity = 1
  Basis Set: AUG-CC-PVTZ
    Blend: AUG-CC-PVTZ
  Basis Set: (AUG-CC-PVTZ AUX)
    Blend: AUG-CC-PVTZ-JKFIT
  @DF-RHF Final Energy:   -76.06048004412582
    Total Energy =                        -76.0604800441258249
  Basis Set: (AUG-CC-PVTZ AUX)
    Blend: AUG-CC-PVTZ-RI
	 Reference Energy          =     -76.0604800441258249 [Eh]
	 Singles Energy            =      -0.0000000000000000 [Eh]
	 Same-Spin Energy          =      -0.0650883042115171 [Eh]
	 Opposite-Spin Energy      =      -0.2029563665135739 [Eh]
	 Correlation Energy        =      -0.2680446707250910 [Eh]
	 Total Energy              =     -76.3285247148509143 [Eh]
	 SCS Total Energy          =     -76.3257237853459571 [Eh]
    Molecular point group: c1
  Basis Set: AUG-CC-PVQZ
    Blend: AUG-CC-PVQZ
  Basis Set: (AUG-CC-PVQZ AUX)
    Blend: AUG-CC-PVQZ-JKFIT
  @DF-RHF Final Energy:   -76.06586944624674
    Total Energy =                        -76.0658694462467366
  Basis Set: (AUG-CC-PVQZ AUX)
  @DF-RHF Final Energy:   -76.06050703330112
    Total Energy =                        -76.0605070333011213
  @DF-RHF Final Energy:   -76.06588163712048
    Total Energy =                        -76.0658816371204836
  @DF-RHF Final Energy: -1875.91644399293818
    Total Energy =                      -1875.9164439929381842
  @DF-RHF Final Energy: -1875.93370263154520
    Total Energy =                      -1875.9337026315452022
  @DF-RHF Final Energy: -1875.91637473052856
    Total Energy =                      -1875.9163747305285597
  @DF-RHF Final Energy: -1875.93368661186992
    Total Energy =                      -1875.9336866118699163
  Multiplicity = 1
  @DF-RHF Final Energy: -1951.97707126960245
    Total Energy =                      -1951.9770712696024475
	 Singles Energy            =      -0.0000000000000000 [Eh]
	 Same-Spin Energy          =      -0.3122743720900909 [Eh]
	 Opposite-Spin Energy      =      -0.9082904570172956 [Eh]
	 Correlation Energy        =      -1.2205648291073865 [Eh]
	 Total Energy              =   -1953.1976360987098360 [Eh]
	 SCS Total Energy          =   -1953.1711112753864654 [Eh]
    Molecular point group: c1

    Geometry (in Angstrom), charge = 0, multiplicity = 1:

       Center              X                  Y                   Z               Mass
    ------------   -----------------  -----------------  -----------------  -----------------
         CL          -1.122832833154    -1.171662061554     0.156787204440    34.968852682000
         CL          -0.614827233154     1.507743638446    -0.790933195560    34.968852682000
         CL           0.797085366846    -0.729459961554    -1.961395695560    34.968852682000
         CL           1.392882466846     0.111914838446     0.741866204440    34.968852682000
         C            0.113766966846    -0.071437961554    -0.467425295560    12.000000000000
         O           -0.981528533154     0.640933938446     3.941821804440    15.994914619570
         H           -1.041031533154    -0.289313461554     4.158543404440     1.007825032230
         H           -0.429880733154     0.733864038446     3.165054404440     1.007825032230

  Charge       = 0
  Multiplicity = 1
  Basis Set: AUG-CC-PVQZ
    Blend: AUG-CC-PVQZ
  Basis Set: (AUG-CC-PVQZ AUX)
    Blend: AUG-CC-PVQZ-JKFIT

    Orbital Energies [Eh]
    ---------------------

    Doubly Occupied:

       1A   -104.885898     2A   -104.882902     3A   -104.882629
       4A   -104.881885     5A    -20.558437     6A    -11.503671
       7A    -10.611660     8A    -10.608611     9A    -10.608227
      10A    -10.607535    11A     -8.078625    12A     -8.076563
      13A     -8.076547    14A     -8.075580    15A     -8.075199
      16A     -8.074505    17A     -8.073482    18A     -8.073475
      19A     -8.073091    20A     -8.073089    21A     -8.072392
      22A     -8.072389    23A     -1.345988    24A     -1.288869
      25A     -1.136483    26A     -1.134352    27A     -1.133600
      28A     -0.840915    29A     -0.721036    30A     -0.665813
      31A     -0.665202    32A     -0.664588    33A     -0.574199
      34A     -0.539411    35A     -0.539128    36A     -0.505490
      37A     -0.496433    38A     -0.495835    39A     -0.495241
      40A     -0.468620    41A     -0.467684    42A     -0.466549

  @DF-RHF Final Energy: -1951.99972055110197

   => Energetics <=

    Nuclear Repulsion Energy =            533.8708318394892558
    One-Electron Energy =               -3760.5974485509518672
    Two-Electron Energy =                1274.7268961603606385
    Total Energy =                      -1951.9997205511019729

  Dipole Moment: [D]
     X:     0.8194      Y:    -1.4284      Z:    -1.2591     Total:     2.0730

  Basis Set: (AUG-CC-PVQZ AUX)
    Blend: AUG-CC-PVQZ-RI
	 Reference Energy          =   -1951.9997205511019729 [Eh]
	 Singles Energy            =      -0.0000000000000000 [Eh]
	 Same-Spin Energy          =      -0.3223866136689820 [Eh]
	 Opposite-Spin Energy      =      -0.9911096274552292 [Eh]
	 Correlation Energy        =      -1.3134962411242113 [Eh]
	 Total Energy              =   -1953.3132167922262852 [Eh]

	 ================> DF-SCS-MP2 Energies <==================
	-----------------------------------------------------------
	 SCS Same-Spin Scale       =       0.3333333333333333 [-]
	 SCS Opposite-Spin Scale   =       1.2000000000000000 [-]
	 SCS Same-Spin Energy      =      -0.1074622045563273 [Eh]
	 SCS Opposite-Spin Energy  =      -1.1893315529462751 [Eh]
	 SCS Correlation Energy    =      -1.2967937575026025 [Eh]
	 SCS Total Energy          =   -1953.2965143086046282 [Eh]
	-----------------------------------------------------------

*** Psi4 exiting successfully. Buy a developer a beer!
