                               Psi4 1.3.2 release

  ==> Input File <==

--------------------------------------------------------------------------
molecule {
0 1
 Cl                 -0.1579851    -0.2358107     1.5789989
 Cl                 -0.5853312     1.5314563    -0.6626172
 Cl                 -0.0039900    -1.2608089    -1.1136819
 Cl                  2.0634563     0.5020987    -0.1198940
  C                  0.3323723     0.1352885    -0.0797709
--
0 1
  O                 -3.3557556    -1.5028206     2.3642623
  H                 -3.2197911    -2.4501838     2.3624956
  H                 -2.9459956    -1.1375696     1.5798171
}
memory 15GB
set_num_threads(4)
psi4_io.set_default_path("/scratch/bdw2292/Psi4-CCl4")
set maxiter 500
set freeze_core True
set PROPERTIES_ORIGIN ["COM"]
e_dim= energy('mp2/aug-cc-pV[TQ]Z',bsse_type='cp')

psi4.print_out('CP Energy = %10.6f' % (e_dim))
clean()
--------------------------------------------------------------------------

    Molecular point group: c1
  Charge       = 0
  Multiplicity = 1
  Basis Set: AUG-CC-PVTZ
    Blend: AUG-CC-PVTZ
  Basis Set: (AUG-CC-PVTZ AUX)
    Blend: AUG-CC-PVTZ-JKFIT
  @DF-RHF Final Energy:   -76.06046042182386
    Total Energy =                        -76.0604604218238478
  Basis Set: (AUG-CC-PVTZ AUX)
    Blend: AUG-CC-PVTZ-RI
	 Reference Energy          =     -76.0604604218238620 [Eh]
	 Singles Energy            =      -0.0000000000000000 [Eh]
	 Same-Spin Energy          =      -0.0650895806807464 [Eh]
	 Opposite-Spin Energy      =      -0.2029601745263765 [Eh]
	 Correlation Energy        =      -0.2680497552071229 [Eh]
	 Total Energy              =     -76.3285101770309780 [Eh]
	 SCS Total Energy          =     -76.3257091581490954 [Eh]
    Molecular point group: c1
  Basis Set: AUG-CC-PVQZ
    Blend: AUG-CC-PVQZ
  Basis Set: (AUG-CC-PVQZ AUX)
    Blend: AUG-CC-PVQZ-JKFIT
  @DF-RHF Final Energy:   -76.06584912661114
    Total Energy =                        -76.0658491266111412
  Basis Set: (AUG-CC-PVQZ AUX)
  @DF-RHF Final Energy:   -76.06048985037171
    Total Energy =                        -76.0604898503717095
  @DF-RHF Final Energy:   -76.06586318650174
    Total Energy =                        -76.0658631865017441
  @DF-RHF Final Energy: -1875.91642867838232
    Total Energy =                      -1875.9164286783823172
  @DF-RHF Final Energy: -1875.93369879185684
    Total Energy =                      -1875.9336987918568411
  @DF-RHF Final Energy: -1875.91637441283069
    Total Energy =                      -1875.9163744128306917
  @DF-RHF Final Energy: -1875.93368448142746
    Total Energy =                      -1875.9336844814274627
  Multiplicity = 1
  @DF-RHF Final Energy: -1951.97672240155316
    Total Energy =                      -1951.9767224015531610
	 Singles Energy            =      -0.0000000000000000 [Eh]
	 Same-Spin Energy          =      -0.3123890650941245 [Eh]
	 Opposite-Spin Energy      =      -0.9084051084414542 [Eh]
	 Correlation Energy        =      -1.2207941735355785 [Eh]
	 Total Energy              =   -1953.1975165750886845 [Eh]
	 SCS Total Energy          =   -1953.1709382200476739 [Eh]
    Molecular point group: c1

    Geometry (in Angstrom), charge = 0, multiplicity = 1:

       Center              X                  Y                   Z               Mass
    ------------   -----------------  -----------------  -----------------  -----------------
         CL          -0.099850016133    -0.193112425751     1.403939322968    34.968852682000
         CL          -0.527196116133     1.574154574249    -0.837676777032    34.968852682000
         CL           0.054145083867    -1.218110625751    -1.288741477032    34.968852682000
         CL           2.121591383867     0.544796974249    -0.294953577032    34.968852682000
         C            0.390507383867     0.177986774249    -0.254830477032    12.000000000000
         O           -3.297620516133    -1.460122325751     2.189202722968    15.994914619570
         H           -3.161656016133    -2.407485525751     2.187436022968     1.007825032230
         H           -2.887860516133    -1.094871325751     1.404757522968     1.007825032230

  Charge       = 0
  Multiplicity = 1
  Basis Set: AUG-CC-PVQZ
    Blend: AUG-CC-PVQZ
  Basis Set: (AUG-CC-PVQZ AUX)
    Blend: AUG-CC-PVQZ-JKFIT

    Orbital Energies [Eh]
    ---------------------

    Doubly Occupied:

       1A   -104.882104     2A   -104.881407     3A   -104.880794
       4A   -104.880561     5A    -20.559784     6A    -11.501359
       7A    -10.607823     8A    -10.607128     9A    -10.606467
      10A    -10.606174    11A     -8.074792    12A     -8.074079
      13A     -8.073436    14A     -8.073147    15A     -8.072708
      16A     -8.072703    17A     -8.071981    18A     -8.071965
      19A     -8.071337    20A     -8.071333    21A     -8.071043
      22A     -8.071042    23A     -1.347546    24A     -1.286670
      25A     -1.133264    26A     -1.132728    27A     -1.132137
      28A     -0.838780    29A     -0.722882    30A     -0.663339
      31A     -0.663007    32A     -0.662657    33A     -0.575406
      34A     -0.537547    35A     -0.537215    36A     -0.508492
      37A     -0.493895    38A     -0.493428    39A     -0.492868
      40A     -0.465717    41A     -0.465510    42A     -0.465152

  @DF-RHF Final Energy: -1951.99937524172424

   => Energetics <=

    Nuclear Repulsion Energy =            532.6295800084300254
    One-Electron Energy =               -3758.2550959232389687
    Two-Electron Energy =                1273.6261406730848194
    Total Energy =                      -1951.9993752417242376

  Dipole Moment: [D]
     X:     1.1113      Y:    -0.8688      Z:    -1.2983     Total:     1.9171

  Basis Set: (AUG-CC-PVQZ AUX)
    Blend: AUG-CC-PVQZ-RI
	 Reference Energy          =   -1951.9993752417242376 [Eh]
	 Singles Energy            =      -0.0000000000000000 [Eh]
	 Same-Spin Energy          =      -0.3225120726553614 [Eh]
	 Opposite-Spin Energy      =      -0.9912511900549101 [Eh]
	 Correlation Energy        =      -1.3137632627102716 [Eh]
	 Total Energy              =   -1953.3131385044346189 [Eh]

	 ================> DF-SCS-MP2 Energies <==================
	-----------------------------------------------------------
	 SCS Same-Spin Scale       =       0.3333333333333333 [-]
	 SCS Opposite-Spin Scale   =       1.2000000000000000 [-]
	 SCS Same-Spin Energy      =      -0.1075040242184538 [Eh]
	 SCS Opposite-Spin Energy  =      -1.1895014280658922 [Eh]
	 SCS Correlation Energy    =      -1.2970054522843459 [Eh]
	 SCS Total Energy          =   -1953.2963806940085760 [Eh]
	-----------------------------------------------------------

*** Psi4 exiting successfully. Buy a developer a beer!
