                               Psi4 1.3.2 release

  ==> Input File <==

--------------------------------------------------------------------------
molecule {
0 1
 Cl                 -1.5149002    -0.4329419     0.6007099
 Cl                 -1.6714920     1.8711931    -1.1316761
 Cl                 -2.5967290    -0.7042083    -2.0629299
 Cl                  0.2287502    -0.2297564    -1.6989855
  C                 -1.3875751     0.1256205    -1.0727028
--
0 1
 Cl                  1.5226191    -2.0337140     4.4536259
 Cl                  3.0980639    -0.5208434     2.5587900
 Cl                  2.3093870    -3.2354508     1.9425869
 Cl                  4.2853142    -2.7320462     3.9881629
  C                  2.8020451    -2.1298599     3.2339645
}
memory 15GB
set_num_threads(4)
psi4_io.set_default_path("/scratch/bdw2292/Psi4-CCl4")
set maxiter 500
set freeze_core True
set PROPERTIES_ORIGIN ["COM"]
e_dim= energy('mp2/aug-cc-pV[TQ]Z',bsse_type='cp')

psi4.print_out('CP Energy = %10.6f' % (e_dim))
clean()
--------------------------------------------------------------------------

    Molecular point group: c1
  Charge       = 0
  Multiplicity = 1
  Basis Set: AUG-CC-PVTZ
    Blend: AUG-CC-PVTZ
  Basis Set: (AUG-CC-PVTZ AUX)
    Blend: AUG-CC-PVTZ-JKFIT
  @DF-RHF Final Energy: -1875.91637004292807
    Total Energy =                      -1875.9163700429280652
  Basis Set: (AUG-CC-PVTZ AUX)
    Blend: AUG-CC-PVTZ-RI
	 Reference Energy          =   -1875.9163700429280652 [Eh]
	 Singles Energy            =      -0.0000000000000000 [Eh]
	 Same-Spin Energy          =      -0.2463651758859608 [Eh]
	 Opposite-Spin Energy      =      -0.7042355715283860 [Eh]
	 Correlation Energy        =      -0.9506007474143467 [Eh]
	 Total Energy              =   -1876.8669707903425206 [Eh]
	 SCS Total Energy          =   -1876.8435744540574888 [Eh]
    Molecular point group: c1
  Basis Set: AUG-CC-PVQZ
    Blend: AUG-CC-PVQZ
  Basis Set: (AUG-CC-PVQZ AUX)
    Blend: AUG-CC-PVQZ-JKFIT
  @DF-RHF Final Energy: -1875.93367561998684
    Total Energy =                      -1875.9336756199868432
  Basis Set: (AUG-CC-PVQZ AUX)
  @DF-RHF Final Energy: -1875.91639702292787
    Total Energy =                      -1875.9163970229278675
  @DF-RHF Final Energy: -1875.93368415549821
    Total Energy =                      -1875.9336841554982129
  @DF-RHF Final Energy: -1875.91641232512234
    Total Energy =                      -1875.9164123251223373
  @DF-RHF Final Energy: -1875.93370540897331
    Total Energy =                      -1875.9337054089733101
  @DF-RHF Final Energy: -1875.91638573948785
    Total Energy =                      -1875.9163857394878505
  @DF-RHF Final Energy: -1875.93369820769885
    Total Energy =                      -1875.9336982076988534
  Multiplicity = 1
  @DF-RHF Final Energy: -3751.83274944620644
    Total Energy =                      -3751.8327494462064351
	 Singles Energy            =      -0.0000000000000000 [Eh]
	 Same-Spin Energy          =      -0.4934871609020028 [Eh]
	 Opposite-Spin Energy      =      -1.4093466929714715 [Eh]
	 Correlation Energy        =      -1.9028338538734744 [Eh]
	 Total Energy              =   -3753.7355833000797247 [Eh]
	 SCS Total Energy          =   -3753.6884611980726731 [Eh]
    Molecular point group: c1

    Geometry (in Angstrom), charge = 0, multiplicity = 1:

       Center              X                  Y                   Z               Mass
    ------------   -----------------  -----------------  -----------------  -----------------
         CL          -2.222495904899     0.569271084559    -0.480523886220    34.968852682000
         CL          -2.379087704899     2.873406084559    -2.212909886220    34.968852682000
         CL          -3.304324704899     0.298004684559    -3.144163686220    34.968852682000
         CL          -0.478845504899     0.772456584559    -2.780219286220    34.968852682000
         C           -2.095170804899     1.127833484559    -2.153936586220    12.000000000000
         CL           0.815023395101    -1.031501015441     3.372392113780    34.968852682000
         CL           2.390468195101     0.481369584559     1.477556213780    34.968852682000
         CL           1.601791295101    -2.233237815441     0.861353113780    34.968852682000
         CL           3.577718495101    -1.729833215441     2.906929113780    34.968852682000
         C            2.094449395101    -1.127646915441     2.152730713780    12.000000000000

  Charge       = 0
  Multiplicity = 1
  Basis Set: AUG-CC-PVQZ
    Blend: AUG-CC-PVQZ
  Basis Set: (AUG-CC-PVQZ AUX)
    Blend: AUG-CC-PVQZ-JKFIT

    Orbital Energies [Eh]
    ---------------------

    Doubly Occupied:

       1A   -104.876312     2A   -104.875986     3A   -104.875897
       4A   -104.875760     5A   -104.875679     6A   -104.875665
       7A   -104.875639     8A   -104.875423     9A    -11.496739
      10A    -11.496218    11A    -10.601980    12A    -10.601637
      13A    -10.601552    14A    -10.601458    15A    -10.601359
      16A    -10.601352    17A    -10.601328    18A    -10.601107
      19A     -8.068951    20A     -8.068609    21A     -8.068524
      22A     -8.068429    23A     -8.068328    24A     -8.068325
      25A     -8.068302    26A     -8.068081    27A     -8.066859
      28A     -8.066859    29A     -8.066512    30A     -8.066510
      31A     -8.066426    32A     -8.066425    33A     -8.066333
      34A     -8.066333    35A     -8.066232    36A     -8.066232
      37A     -8.066229    38A     -8.066228    39A     -8.066207
      40A     -8.066207    41A     -8.065980    42A     -8.065979
      43A     -1.281149    44A     -1.281106    45A     -1.127550
      46A     -1.127344    47A     -1.127267    48A     -1.127173
      49A     -1.127104    50A     -1.126797    51A     -0.833684
      52A     -0.833256    53A     -0.657876    54A     -0.657817
      55A     -0.657794    56A     -0.657590    57A     -0.657425
      58A     -0.657357    59A     -0.532184    60A     -0.531889
      61A     -0.531649    62A     -0.530931    63A     -0.489883
      64A     -0.488841    65A     -0.488654    66A     -0.488530
      67A     -0.488267    68A     -0.486534    69A     -0.460557
      70A     -0.460413    71A     -0.460312    72A     -0.459957
      73A     -0.459888    74A     -0.459653

  @DF-RHF Final Energy: -3751.86733076160590

   => Energetics <=

    Nuclear Repulsion Energy =           1326.2177485387833258
    One-Electron Energy =               -7829.8169224590556041
    Two-Electron Energy =                2751.7318431586668339
    Total Energy =                      -3751.8673307616058992

  Dipole Moment: [D]
     X:     0.0138      Y:    -0.0028      Z:    -0.0007     Total:     0.0141

  Basis Set: (AUG-CC-PVQZ AUX)
    Blend: AUG-CC-PVQZ-RI
	 Reference Energy          =   -3751.8673307616058992 [Eh]
	 Singles Energy            =      -0.0000000000000000 [Eh]
	 Same-Spin Energy          =      -0.5095944931567464 [Eh]
	 Opposite-Spin Energy      =      -1.5441562591871827 [Eh]
	 Correlation Energy        =      -2.0537507523439293 [Eh]
	 Total Energy              =   -3753.9210815139499573 [Eh]

	 ================> DF-SCS-MP2 Energies <==================
	-----------------------------------------------------------
	 SCS Same-Spin Scale       =       0.3333333333333333 [-]
	 SCS Opposite-Spin Scale   =       1.2000000000000000 [-]
	 SCS Same-Spin Energy      =      -0.1698648310522488 [Eh]
	 SCS Opposite-Spin Energy  =      -1.8529875110246192 [Eh]
	 SCS Correlation Energy    =      -2.0228523420768680 [Eh]
	 SCS Total Energy          =   -3753.8901831036828298 [Eh]
	-----------------------------------------------------------

*** Psi4 exiting successfully. Buy a developer a beer!
