                               Psi4 1.3.2 release

  ==> Input File <==

--------------------------------------------------------------------------
molecule {
0 1
 Cl                 -1.5149002    -0.4329419     0.6007099
 Cl                 -1.6714920     1.8711931    -1.1316761
 Cl                 -2.5967290    -0.7042083    -2.0629299
 Cl                  0.2287502    -0.2297564    -1.6989855
  C                 -1.3875751     0.1256205    -1.0727028
--
0 1
 Cl                  1.0886878    -1.8050323     3.9032094
 Cl                  2.6641326    -0.2921617     2.0083735
 Cl                  1.8754557    -3.0067691     1.3921703
 Cl                  3.8513829    -2.5033644     3.4377463
  C                  2.3681138    -1.9011782     2.6835479
}
memory 15GB
set_num_threads(4)
psi4_io.set_default_path("/scratch/bdw2292/Psi4-CCl4")
set maxiter 500
set freeze_core True
set PROPERTIES_ORIGIN ["COM"]
e_dim= energy('mp2/aug-cc-pV[TQ]Z',bsse_type='cp')

psi4.print_out('CP Energy = %10.6f' % (e_dim))
clean()
--------------------------------------------------------------------------

    Molecular point group: c1
  Charge       = 0
  Multiplicity = 1
  Basis Set: AUG-CC-PVTZ
    Blend: AUG-CC-PVTZ
  Basis Set: (AUG-CC-PVTZ AUX)
    Blend: AUG-CC-PVTZ-JKFIT
  @DF-RHF Final Energy: -1875.91637004241056
    Total Energy =                      -1875.9163700424105627
  Basis Set: (AUG-CC-PVTZ AUX)
    Blend: AUG-CC-PVTZ-RI
	 Reference Energy          =   -1875.9163700424105627 [Eh]
	 Singles Energy            =      -0.0000000000000000 [Eh]
	 Same-Spin Energy          =      -0.2463651759131310 [Eh]
	 Opposite-Spin Energy      =      -0.7042355715088413 [Eh]
	 Correlation Energy        =      -0.9506007474219723 [Eh]
	 Total Energy              =   -1876.8669707898325214 [Eh]
	 SCS Total Energy          =   -1876.8435744535256617 [Eh]
    Molecular point group: c1
  Basis Set: AUG-CC-PVQZ
    Blend: AUG-CC-PVQZ
  Basis Set: (AUG-CC-PVQZ AUX)
    Blend: AUG-CC-PVQZ-JKFIT
  @DF-RHF Final Energy: -1875.93367561923969
    Total Energy =                      -1875.9336756192396933
  Basis Set: (AUG-CC-PVQZ AUX)
  @DF-RHF Final Energy: -1875.91641786467790
    Total Energy =                      -1875.9164178646778964
  @DF-RHF Final Energy: -1875.93369400214010
    Total Energy =                      -1875.9336940021401006
  @DF-RHF Final Energy: -1875.91643469850919
    Total Energy =                      -1875.9164346985091925
  @DF-RHF Final Energy: -1875.93371366433394
    Total Energy =                      -1875.9337136643339363
  @DF-RHF Final Energy: -1875.91638573997534
    Total Energy =                      -1875.9163857399753397
  @DF-RHF Final Energy: -1875.93369820842759
    Total Energy =                      -1875.9336982084275860
  Multiplicity = 1
  @DF-RHF Final Energy: -3751.83234572611173
    Total Energy =                      -3751.8323457261117255
	 Singles Energy            =      -0.0000000000000000 [Eh]
	 Same-Spin Energy          =      -0.4944642952050006 [Eh]
	 Opposite-Spin Energy      =      -1.4105225273070565 [Eh]
	 Correlation Energy        =      -1.9049868225120572 [Eh]
	 Total Energy              =   -3753.7373325486237263 [Eh]
	 SCS Total Energy          =   -3753.6897941906149754 [Eh]
    Molecular point group: c1

    Geometry (in Angstrom), charge = 0, multiplicity = 1:

       Center              X                  Y                   Z               Mass
    ------------   -----------------  -----------------  -----------------  -----------------
         CL          -2.005530254899     0.454930223046    -0.205315609245    34.968852682000
         CL          -2.162122054899     2.759065223046    -1.937701609245    34.968852682000
         CL          -3.087359054899     0.183663823046    -2.868955409245    34.968852682000
         CL          -0.261879854899     0.658115723046    -2.505011009245    34.968852682000
         C           -1.878205154899     1.013492623046    -1.878728309245    12.000000000000
         CL           0.598057745101    -0.917160176954     3.097183890755    34.968852682000
         CL           2.173502545101     0.595710423046     1.202347990755    34.968852682000
         CL           1.384825645101    -2.118896976954     0.586144790755    34.968852682000
         CL           3.360752845101    -1.615492276954     2.631720790755    34.968852682000
         C            1.877483745101    -1.013306076954     1.877522390755    12.000000000000

  Charge       = 0
  Multiplicity = 1
  Basis Set: AUG-CC-PVQZ
    Blend: AUG-CC-PVQZ
  Basis Set: (AUG-CC-PVQZ AUX)
    Blend: AUG-CC-PVQZ-JKFIT

    Orbital Energies [Eh]
    ---------------------

    Doubly Occupied:

       1A   -104.876404     2A   -104.875627     3A   -104.875574
       4A   -104.875506     5A   -104.875468     6A   -104.875426
       7A   -104.875264     8A   -104.874930     9A    -11.496604
      10A    -11.495937    11A    -10.602083    12A    -10.601327
      13A    -10.601243    14A    -10.601176    15A    -10.601161
      16A    -10.601120    17A    -10.600953    18A    -10.600637
      19A     -8.069054    20A     -8.068297    21A     -8.068214
      22A     -8.068148    23A     -8.068133    24A     -8.068092
      25A     -8.067926    26A     -8.067610    27A     -8.066965
      28A     -8.066965    29A     -8.066203    30A     -8.066202
      31A     -8.066117    32A     -8.066113    33A     -8.066050
      34A     -8.066047    35A     -8.066039    36A     -8.066038
      37A     -8.065998    38A     -8.065997    39A     -8.065830
      40A     -8.065828    41A     -8.065507    42A     -8.065506
      43A     -1.281052    44A     -1.280779    45A     -1.127594
      46A     -1.127082    47A     -1.127045    48A     -1.127021
      49A     -1.126857    50A     -1.126404    51A     -0.833805
      52A     -0.832754    53A     -0.658138    54A     -0.657873
      55A     -0.657811    56A     -0.657135    57A     -0.657081
      58A     -0.656702    59A     -0.533251    60A     -0.532020
      61A     -0.531183    62A     -0.529859    63A     -0.492636
      64A     -0.488720    65A     -0.488574    66A     -0.488267
      67A     -0.488054    68A     -0.483019    69A     -0.460907
      70A     -0.460635    71A     -0.460282    72A     -0.459568
      73A     -0.459390    74A     -0.458664

  @DF-RHF Final Energy: -3751.86689454873067

   => Energetics <=

    Nuclear Repulsion Energy =           1381.5077812921479108
    One-Electron Energy =               -7940.4303899741717032
    Two-Electron Energy =                2807.0557141332928950
    Total Energy =                      -3751.8668945487306701

  Dipole Moment: [D]
     X:     0.0202      Y:    -0.0042      Z:    -0.0037     Total:     0.0209

  Basis Set: (AUG-CC-PVQZ AUX)
    Blend: AUG-CC-PVQZ-RI
	 Reference Energy          =   -3751.8668945487306701 [Eh]
	 Singles Energy            =      -0.0000000000000000 [Eh]
	 Same-Spin Energy          =      -0.5105778377001513 [Eh]
	 Opposite-Spin Energy      =      -1.5452707645075083 [Eh]
	 Correlation Energy        =      -2.0558486022076599 [Eh]
	 Total Energy              =   -3753.9227431509384587 [Eh]

	 ================> DF-SCS-MP2 Energies <==================
	-----------------------------------------------------------
	 SCS Same-Spin Scale       =       0.3333333333333333 [-]
	 SCS Opposite-Spin Scale   =       1.2000000000000000 [-]
	 SCS Same-Spin Energy      =      -0.1701926125667171 [Eh]
	 SCS Opposite-Spin Energy  =      -1.8543249174090100 [Eh]
	 SCS Correlation Energy    =      -2.0245175299757272 [Eh]
	 SCS Total Energy          =   -3753.8914120787062529 [Eh]
	-----------------------------------------------------------

*** Psi4 exiting successfully. Buy a developer a beer!
