                               Psi4 1.3.2 release

  ==> Input File <==

--------------------------------------------------------------------------
molecule {
0 1
 Cl                 -1.5149002    -0.4329419     0.6007099
 Cl                 -1.6714920     1.8711931    -1.1316761
 Cl                 -2.5967290    -0.7042083    -2.0629299
 Cl                  0.2287502    -0.2297564    -1.6989855
  C                 -1.3875751     0.1256205    -1.0727028
--
0 1
 Cl                  0.6547564    -1.5763505     3.3527928
 Cl                  2.2302013    -0.0634799     1.4579569
 Cl                  1.4415243    -2.7780873     0.8417537
 Cl                  3.4174516    -2.2746827     2.8873297
  C                  1.9341825    -1.6724964     2.1331314
}
memory 15GB
set_num_threads(4)
psi4_io.set_default_path("/scratch/bdw2292/Psi4-CCl4")
set maxiter 500
set freeze_core True
set PROPERTIES_ORIGIN ["COM"]
e_dim= energy('mp2/aug-cc-pV[TQ]Z',bsse_type='cp')

psi4.print_out('CP Energy = %10.6f' % (e_dim))
clean()
--------------------------------------------------------------------------

    Molecular point group: c1
  Charge       = 0
  Multiplicity = 1
  Basis Set: AUG-CC-PVTZ
    Blend: AUG-CC-PVTZ
  Basis Set: (AUG-CC-PVTZ AUX)
    Blend: AUG-CC-PVTZ-JKFIT
  @DF-RHF Final Energy: -1875.91637004166614
    Total Energy =                      -1875.9163700416661413
  Basis Set: (AUG-CC-PVTZ AUX)
    Blend: AUG-CC-PVTZ-RI
	 Reference Energy          =   -1875.9163700416661413 [Eh]
	 Singles Energy            =      -0.0000000000000000 [Eh]
	 Same-Spin Energy          =      -0.2463651750474294 [Eh]
	 Opposite-Spin Energy      =      -0.7042355727040328 [Eh]
	 Correlation Energy        =      -0.9506007477514622 [Eh]
	 Total Energy              =   -1876.8669707894175644 [Eh]
	 SCS Total Energy          =   -1876.8435744539267489 [Eh]
    Molecular point group: c1
  Basis Set: AUG-CC-PVQZ
    Blend: AUG-CC-PVQZ
  Basis Set: (AUG-CC-PVQZ AUX)
    Blend: AUG-CC-PVQZ-JKFIT
  @DF-RHF Final Energy: -1875.93367561765012
    Total Energy =                      -1875.9336756176501240
  Basis Set: (AUG-CC-PVQZ AUX)
  @DF-RHF Final Energy: -1875.91650476877976
    Total Energy =                      -1875.9165047687797596
  @DF-RHF Final Energy: -1875.93370515550328
    Total Energy =                      -1875.9337051555032758
  @DF-RHF Final Energy: -1875.91650581880481
    Total Energy =                      -1875.9165058188048079
  @DF-RHF Final Energy: -1875.93372457344572
    Total Energy =                      -1875.9337245734457156
  @DF-RHF Final Energy: -1875.91638573932778
    Total Energy =                      -1875.9163857393277794
  @DF-RHF Final Energy: -1875.93369820742555
    Total Energy =                      -1875.9336982074255502
  Multiplicity = 1
  @DF-RHF Final Energy: -3751.82880010606732
    Total Energy =                      -3751.8288001060673196
	 Singles Energy            =      -0.0000000000000000 [Eh]
	 Same-Spin Energy          =      -0.4970940150281243 [Eh]
	 Opposite-Spin Energy      =      -1.4136493783001969 [Eh]
	 Correlation Energy        =      -1.9107433933283211 [Eh]
	 Total Energy              =   -3753.7395434993954950 [Eh]
	 SCS Total Energy          =   -3753.6908773650370676 [Eh]
    Molecular point group: c1

    Geometry (in Angstrom), charge = 0, multiplicity = 1:

       Center              X                  Y                   Z               Mass
    ------------   -----------------  -----------------  -----------------  -----------------
         CL          -1.788564581874     0.340589334559     0.069892686805    34.968852682000
         CL          -1.945156381874     2.644724334559    -1.662493313195    34.968852682000
         CL          -2.870393381874     0.069322934559    -2.593747113195    34.968852682000
         CL          -0.044914181874     0.543774834559    -2.229802713195    34.968852682000
         C           -1.661239481874     0.899151734559    -1.603520013195    12.000000000000
         CL           0.381092018126    -0.802819265441     2.821975586805    34.968852682000
         CL           1.956536918126     0.710051334559     0.927139686805    34.968852682000
         CL           1.167859918126    -2.004556065441     0.310936486805    34.968852682000
         CL           3.143787218126    -1.501151465441     2.356512486805    34.968852682000
         C            1.660518118126    -0.898965165441     1.602314186805    12.000000000000

  Charge       = 0
  Multiplicity = 1
  Basis Set: AUG-CC-PVQZ
    Blend: AUG-CC-PVQZ
  Basis Set: (AUG-CC-PVQZ AUX)
    Blend: AUG-CC-PVQZ-JKFIT

    Orbital Energies [Eh]
    ---------------------

    Doubly Occupied:

       1A   -104.876346     2A   -104.875387     3A   -104.875038
       4A   -104.874918     5A   -104.874474     6A   -104.874467
       7A   -104.873817     8A   -104.873706     9A    -11.496418
      10A    -11.495287    11A    -10.602102    12A    -10.601089
      13A    -10.600740    14A    -10.600622    15A    -10.600261
      16A    -10.600251    17A    -10.599650    18A    -10.599570
      19A     -8.069071    20A     -8.068059    21A     -8.067712
      22A     -8.067594    23A     -8.067224    24A     -8.067218
      25A     -8.066992    26A     -8.066988    27A     -8.066612
      28A     -8.066528    29A     -8.065966    30A     -8.065964
      31A     -8.065621    32A     -8.065620    33A     -8.065503
      34A     -8.065502    35A     -8.065128    36A     -8.065126
      37A     -8.065123    38A     -8.065121    39A     -8.064519
      40A     -8.064518    41A     -8.064424    42A     -8.064417
      43A     -1.281256    44A     -1.279860    45A     -1.128216
      46A     -1.127625    47A     -1.126719    48A     -1.126534
      49A     -1.125824    50A     -1.125175    51A     -0.834716
      52A     -0.831342    53A     -0.659819    54A     -0.658510
      55A     -0.658200    56A     -0.656247    57A     -0.655923
      58A     -0.654973    59A     -0.537132    60A     -0.532875
      61A     -0.530324    62A     -0.527981    63A     -0.498688
      64A     -0.488851    65A     -0.488601    66A     -0.488028
      67A     -0.487748    68A     -0.473426    69A     -0.462593
      70A     -0.461363    71A     -0.460862    72A     -0.458087
      73A     -0.457613    74A     -0.455507

  @DF-RHF Final Energy: -3751.86321122887512

   => Energetics <=

    Nuclear Repulsion Energy =           1451.1780887950615124
    One-Electron Energy =               -8079.8399799347098451
    Two-Electron Energy =                2876.7986799107729894
    Total Energy =                      -3751.8632112288751159

  Dipole Moment: [D]
     X:     0.0344      Y:    -0.0086      Z:    -0.0039     Total:     0.0357

  Basis Set: (AUG-CC-PVQZ AUX)
    Blend: AUG-CC-PVQZ-RI
	 Reference Energy          =   -3751.8632112288751159 [Eh]
	 Singles Energy            =      -0.0000000000000000 [Eh]
	 Same-Spin Energy          =      -0.5132700574210415 [Eh]
	 Opposite-Spin Energy      =      -1.5483105915706818 [Eh]
	 Correlation Energy        =      -2.0615806489917232 [Eh]
	 Total Energy              =   -3753.9247918778669373 [Eh]

	 ================> DF-SCS-MP2 Energies <==================
	-----------------------------------------------------------
	 SCS Same-Spin Scale       =       0.3333333333333333 [-]
	 SCS Opposite-Spin Scale   =       1.2000000000000000 [-]
	 SCS Same-Spin Energy      =      -0.1710900191403472 [Eh]
	 SCS Opposite-Spin Energy  =      -1.8579727098848182 [Eh]
	 SCS Correlation Energy    =      -2.0290627290251653 [Eh]
	 SCS Total Energy          =   -3753.8922739579002155 [Eh]
	-----------------------------------------------------------

*** Psi4 exiting successfully. Buy a developer a beer!
