                               Psi4 1.3.2 release

  ==> Input File <==

--------------------------------------------------------------------------
molecule {
0 1
 Cl                 -1.2107509    -0.8798622     2.0388667
 Cl                 -1.2016718     1.2595512     0.0928711
 Cl                 -0.4324728    -1.4106835    -0.6944078
 Cl                  1.2946898     0.1437838     1.0222648
  C                 -0.3884123    -0.2223763     0.6163801
--
0 1
 Cl                  1.2584068     0.9553980    -2.1275296
 Cl                  1.4188404     2.9482455    -4.2110930
 Cl                  2.0646924     0.1915414    -4.7941227
 Cl                  3.8352352     1.7729599    -3.1448594
  C                  2.1445375     1.4670397    -3.5698936
}
memory 15GB
set_num_threads(4)
psi4_io.set_default_path("/scratch/bdw2292/Psi4-CCl4")
set maxiter 500
set freeze_core True
set PROPERTIES_ORIGIN ["COM"]
e_dim= energy('mp2/aug-cc-pV[TQ]Z',bsse_type='cp')

psi4.print_out('CP Energy = %10.6f' % (e_dim))
clean()
--------------------------------------------------------------------------

    Molecular point group: c1
  Charge       = 0
  Multiplicity = 1
  Basis Set: AUG-CC-PVTZ
    Blend: AUG-CC-PVTZ
  Basis Set: (AUG-CC-PVTZ AUX)
    Blend: AUG-CC-PVTZ-JKFIT
  @DF-RHF Final Energy: -1875.91638493806431
    Total Energy =                      -1875.9163849380643114
  Basis Set: (AUG-CC-PVTZ AUX)
    Blend: AUG-CC-PVTZ-RI
	 Reference Energy          =   -1875.9163849380643114 [Eh]
	 Singles Energy            =      -0.0000000000000000 [Eh]
	 Same-Spin Energy          =      -0.2463768255656805 [Eh]
	 Opposite-Spin Energy      =      -0.7042185867810054 [Eh]
	 Correlation Energy        =      -0.9505954123466859 [Eh]
	 Total Energy              =   -1876.8669803504110405 [Eh]
	 SCS Total Energy          =   -1876.8435728507233762 [Eh]
    Molecular point group: c1
  Basis Set: AUG-CC-PVQZ
    Blend: AUG-CC-PVQZ
  Basis Set: (AUG-CC-PVQZ AUX)
    Blend: AUG-CC-PVQZ-JKFIT
  @DF-RHF Final Energy: -1875.93369578768784
    Total Energy =                      -1875.9336957876878387
  Basis Set: (AUG-CC-PVQZ AUX)
  @DF-RHF Final Energy: -1875.91649504799534
    Total Energy =                      -1875.9164950479953404
  @DF-RHF Final Energy: -1875.93371815392425
    Total Energy =                      -1875.9337181539242465
  @DF-RHF Final Energy: -1875.91652037551580
    Total Energy =                      -1875.9165203755158018
  @DF-RHF Final Energy: -1875.93371814812235
    Total Energy =                      -1875.9337181481223524
  @DF-RHF Final Energy: -1875.91637816872094
    Total Energy =                      -1875.9163781687209394
  @DF-RHF Final Energy: -1875.93368617275473
    Total Energy =                      -1875.9336861727547330
  Multiplicity = 1
  @DF-RHF Final Energy: -3751.82142318334809
    Total Energy =                      -3751.8214231833480881
	 Singles Energy            =      -0.0000000000000000 [Eh]
	 Same-Spin Energy          =      -0.4986851634668439 [Eh]
	 Opposite-Spin Energy      =      -1.4155301005627017 [Eh]
	 Correlation Energy        =      -1.9142152640295456 [Eh]
	 Total Energy              =   -3753.7356384473778235 [Eh]
	 SCS Total Energy          =   -3753.6862876918457914 [Eh]
    Molecular point group: c1

    Geometry (in Angstrom), charge = 0, multiplicity = 1:

       Center              X                  Y                   Z               Mass
    ------------   -----------------  -----------------  -----------------  -----------------
         CL          -2.089097659294    -1.502456439104     3.516078866988    34.968852682000
         CL          -2.080018559294     0.636956960896     1.570083266988    34.968852682000
         CL          -1.310819559294    -2.033277739104     0.782804366988    34.968852682000
         CL           0.416343040706    -0.478810439104     2.499476966988    34.968852682000
         C           -1.266759059294    -0.844970539104     2.093592266988    12.000000000000
         CL           0.380060040706     0.332803760896    -0.650317433012    34.968852682000
         CL           0.540493640706     2.325651260896    -2.733880833012    34.968852682000
         CL           1.186345640706    -0.431052839104    -3.316910533012    34.968852682000
         CL           2.956888440706     1.150365660896    -1.667647233012    34.968852682000
         C            1.266190740706     0.844445460896    -2.092681433012    12.000000000000

  Charge       = 0
  Multiplicity = 1
  Basis Set: AUG-CC-PVQZ
    Blend: AUG-CC-PVQZ
  Basis Set: (AUG-CC-PVQZ AUX)
    Blend: AUG-CC-PVQZ-JKFIT

    Orbital Energies [Eh]
    ---------------------

    Doubly Occupied:

       1A   -104.877422     2A   -104.877256     3A   -104.876711
       4A   -104.876384     5A   -104.873998     6A   -104.873916
       7A   -104.873778     8A   -104.869499     9A    -11.498444
      10A    -11.493237    11A    -10.603158    12A    -10.603068
      13A    -10.602684    14A    -10.602371    15A    -10.599702
      16A    -10.599618    17A    -10.599486    18A    -10.595953
      19A     -8.070109    20A     -8.070038    21A     -8.069627
      22A     -8.069312    23A     -8.068029    24A     -8.068006
      25A     -8.067938    26A     -8.067937    27A     -8.067553
      28A     -8.067523    29A     -8.067239    30A     -8.067208
      31A     -8.066675    32A     -8.066590    33A     -8.066460
      34A     -8.064590    35A     -8.064588    36A     -8.064506
      37A     -8.064503    38A     -8.064374    39A     -8.064371
      40A     -8.062871    41A     -8.060649    42A     -8.060645
      43A     -1.284149    44A     -1.278568    45A     -1.131524
      46A     -1.129784    47A     -1.129593    48A     -1.125455
      49A     -1.125371    50A     -1.122906    51A     -0.836910
      52A     -0.831050    53A     -0.670524    54A     -0.659895
      55A     -0.659779    56A     -0.655592    57A     -0.655528
      58A     -0.647972    59A     -0.540521    60A     -0.540197
      61A     -0.526230    62A     -0.526156    63A     -0.500618
      64A     -0.490452    65A     -0.490347    66A     -0.487397
      67A     -0.486805    68A     -0.473376    69A     -0.467351
      70A     -0.466763    71A     -0.461966    72A     -0.458549
      73A     -0.450797    74A     -0.449667

  @DF-RHF Final Energy: -3751.85591576411662

   => Energetics <=

    Nuclear Repulsion Energy =           1439.2992929664630992
    One-Electron Energy =               -8056.0107724365952890
    Two-Electron Energy =                2864.8555637060153458
    Total Energy =                      -3751.8559157641166166

  Dipole Moment: [D]
     X:    -0.0870      Y:    -0.0707      Z:     0.1505     Total:     0.1876

  Basis Set: (AUG-CC-PVQZ AUX)
    Blend: AUG-CC-PVQZ-RI
	 Reference Energy          =   -3751.8559157641166166 [Eh]
	 Singles Energy            =      -0.0000000000000000 [Eh]
	 Same-Spin Energy          =      -0.5149317229432586 [Eh]
	 Opposite-Spin Energy      =      -1.5503338009703067 [Eh]
	 Correlation Energy        =      -2.0652655239135651 [Eh]
	 Total Energy              =   -3753.9211812880303114 [Eh]

	 ================> DF-SCS-MP2 Energies <==================
	-----------------------------------------------------------
	 SCS Same-Spin Scale       =       0.3333333333333333 [-]
	 SCS Opposite-Spin Scale   =       1.2000000000000000 [-]
	 SCS Same-Spin Energy      =      -0.1716439076477529 [Eh]
	 SCS Opposite-Spin Energy  =      -1.8604005611643679 [Eh]
	 SCS Correlation Energy    =      -2.0320444688121206 [Eh]
	 SCS Total Energy          =   -3753.8879602329288900 [Eh]
	-----------------------------------------------------------

*** Psi4 exiting successfully. Buy a developer a beer!
