                               Psi4 1.3.2 release

  ==> Input File <==

--------------------------------------------------------------------------
molecule {
0 1
 Cl                 -1.5149002    -0.4329419     0.6007099
 Cl                 -1.6714920     1.8711931    -1.1316761
 Cl                 -2.5967290    -0.7042083    -2.0629299
 Cl                  0.2287502    -0.2297564    -1.6989855
  C                 -1.3875751     0.1256205    -1.0727028
--
0 1
 Cl                  0.2208251    -1.3476688     2.8023762
 Cl                  1.7962699     0.1652018     0.9075403
 Cl                  1.0075930    -2.5494056     0.2913371
 Cl                  2.9835202    -2.0460010     2.3369131
  C                  1.5002511    -1.4438147     1.5827148
}
memory 15GB
set_num_threads(4)
psi4_io.set_default_path("/scratch/bdw2292/Psi4-CCl4")
set maxiter 500
set freeze_core True
set PROPERTIES_ORIGIN ["COM"]
e_dim= energy('mp2/aug-cc-pV[TQ]Z',bsse_type='cp')

psi4.print_out('CP Energy = %10.6f' % (e_dim))
clean()
--------------------------------------------------------------------------

    Molecular point group: c1
  Charge       = 0
  Multiplicity = 1
  Basis Set: AUG-CC-PVTZ
    Blend: AUG-CC-PVTZ
  Basis Set: (AUG-CC-PVTZ AUX)
    Blend: AUG-CC-PVTZ-JKFIT
  @DF-RHF Final Energy: -1875.91637004272548
    Total Energy =                      -1875.9163700427254753
  Basis Set: (AUG-CC-PVTZ AUX)
    Blend: AUG-CC-PVTZ-RI
	 Reference Energy          =   -1875.9163700427254753 [Eh]
	 Singles Energy            =      -0.0000000000000000 [Eh]
	 Same-Spin Energy          =      -0.2463651756915086 [Eh]
	 Opposite-Spin Energy      =      -0.7042355718056967 [Eh]
	 Correlation Energy        =      -0.9506007474972054 [Eh]
	 Total Energy              =   -1876.8669707902226946 [Eh]
	 SCS Total Energy          =   -1876.8435744541227450 [Eh]
    Molecular point group: c1
  Basis Set: AUG-CC-PVQZ
    Blend: AUG-CC-PVQZ
  Basis Set: (AUG-CC-PVQZ AUX)
    Blend: AUG-CC-PVQZ-JKFIT
  @DF-RHF Final Energy: -1875.93367561884111
    Total Energy =                      -1875.9336756188411073
  Basis Set: (AUG-CC-PVQZ AUX)
  @DF-RHF Final Energy: -1875.91658987246046
    Total Energy =                      -1875.9165898724604631
  @DF-RHF Final Energy: -1875.93372338064773
    Total Energy =                      -1875.9337233806477343
  @DF-RHF Final Energy: -1875.91659805177892
    Total Energy =                      -1875.9165980517789194
  @DF-RHF Final Energy: -1875.93374155275160
    Total Energy =                      -1875.9337415527515986
  @DF-RHF Final Energy: -1875.91638573947489
    Total Energy =                      -1875.9163857394748902
  @DF-RHF Final Energy: -1875.93369820891962
    Total Energy =                      -1875.9336982089196226
  Multiplicity = 1
  @DF-RHF Final Energy: -3751.80031265029493
    Total Energy =                      -3751.8003126502949272
	 Singles Energy            =      -0.0000000000000000 [Eh]
	 Same-Spin Energy          =      -0.5047233723212771 [Eh]
	 Opposite-Spin Energy      =      -1.4224519788189720 [Eh]
	 Correlation Energy        =      -1.9271753511402490 [Eh]
	 Total Energy              =   -3753.7274880014351766 [Eh]
	 SCS Total Energy          =   -3753.6754961489846210 [Eh]
    Molecular point group: c1

    Geometry (in Angstrom), charge = 0, multiplicity = 1:

       Center              X                  Y                   Z               Mass
    ------------   -----------------  -----------------  -----------------  -----------------
         CL          -1.571598904899     0.226248484559     0.345100986805    34.968852682000
         CL          -1.728190704899     2.530383484559    -1.387285013195    34.968852682000
         CL          -2.653427704899    -0.045017915441    -2.318538813195    34.968852682000
         CL           0.172051495101     0.429433984559    -1.954594413195    34.968852682000
         C           -1.444273804899     0.784810884559    -1.328311713195    12.000000000000
         CL           0.164126395101    -0.688478415441     2.546767286805    34.968852682000
         CL           1.739571195101     0.824392184559     0.651931386805    34.968852682000
         CL           0.950894295101    -1.890215215441     0.035728186805    34.968852682000
         CL           2.926821495101    -1.386810615441     2.081304186805    34.968852682000
         C            1.443552395101    -0.784624315441     1.327105886805    12.000000000000

  Charge       = 0
  Multiplicity = 1
  Basis Set: AUG-CC-PVQZ
    Blend: AUG-CC-PVQZ
  Basis Set: (AUG-CC-PVQZ AUX)
    Blend: AUG-CC-PVQZ-JKFIT

    Orbital Energies [Eh]
    ---------------------

    Doubly Occupied:

       1A   -104.875505     2A   -104.874720     3A   -104.873659
       4A   -104.873094     5A   -104.871835     6A   -104.871585
       7A   -104.870167     8A   -104.867615     9A    -11.496540
      10A    -11.492627    11A    -10.601177    12A    -10.601076
      13A    -10.599394    14A    -10.598842    15A    -10.598185
      16A    -10.598037    17A    -10.596894    18A    -10.594438
      19A     -8.068141    20A     -8.067981    21A     -8.066365
      22A     -8.066047    23A     -8.066043    24A     -8.065991
      25A     -8.065921    26A     -8.065812    27A     -8.065086
      28A     -8.064919    29A     -8.064285    30A     -8.064280
      31A     -8.063747    32A     -8.063731    33A     -8.063726
      34A     -8.063048    35A     -8.063010    36A     -8.062900
      37A     -8.062840    38A     -8.061605    39A     -8.061523
      40A     -8.061279    41A     -8.059283    42A     -8.059218
      43A     -1.284143    44A     -1.276688    45A     -1.134303
      46A     -1.131442    47A     -1.127255    48A     -1.125057
      49A     -1.121484    50A     -1.120706    51A     -0.838891
      52A     -0.827705    53A     -0.667606    54A     -0.662018
      55A     -0.661623    56A     -0.654367    57A     -0.653092
      58A     -0.651840    59A     -0.548854    60A     -0.537657
      61A     -0.531219    62A     -0.526624    63A     -0.506237
      64A     -0.491126    65A     -0.490590    66A     -0.488960
      67A     -0.486924    68A     -0.466665    69A     -0.464772
      70A     -0.461725    71A     -0.455593    72A     -0.448921
      73A     -0.446783    74A     -0.442876

  @DF-RHF Final Energy: -3751.83471908303272

   => Energetics <=

    Nuclear Repulsion Energy =           1540.7697458513669062
    One-Electron Energy =               -8259.1571195363794686
    Two-Electron Energy =                2966.5526546019800662
    Total Energy =                      -3751.8347190830327236

  Dipole Moment: [D]
     X:     0.0974      Y:    -0.0350      Z:     0.0403     Total:     0.1111

  Basis Set: (AUG-CC-PVQZ AUX)
    Blend: AUG-CC-PVQZ-RI
	 Reference Energy          =   -3751.8347190830327236 [Eh]
	 Singles Energy            =      -0.0000000000000000 [Eh]
	 Same-Spin Energy          =      -0.5211903209464419 [Eh]
	 Opposite-Spin Energy      =      -1.5573751843259520 [Eh]
	 Correlation Energy        =      -2.0785655052723939 [Eh]
	 Total Energy              =   -3753.9132845883050322 [Eh]

	 ================> DF-SCS-MP2 Energies <==================
	-----------------------------------------------------------
	 SCS Same-Spin Scale       =       0.3333333333333333 [-]
	 SCS Opposite-Spin Scale   =       1.2000000000000000 [-]
	 SCS Same-Spin Energy      =      -0.1737301069821473 [Eh]
	 SCS Opposite-Spin Energy  =      -1.8688502211911424 [Eh]
	 SCS Correlation Energy    =      -2.0425803281732895 [Eh]
	 SCS Total Energy          =   -3753.8772994112059678 [Eh]
	-----------------------------------------------------------

*** Psi4 exiting successfully. Buy a developer a beer!
