                               Psi4 1.3.2 release

  ==> Input File <==

--------------------------------------------------------------------------
molecule {
0 1
C         -5.39960       -1.30330       -0.41360
C         -4.15550       -0.51950       -0.13450
N         -2.88880       -1.10540       -0.07100
C         -2.79090       -2.55700       -0.33120
C         -1.67290       -0.44230        0.21710
C          0.81870        0.79670        0.73960
C          0.76840       -0.39010        0.07510
C         -0.38080        1.37730        1.15150
C         -0.45250       -0.99130       -0.17810
C         -1.58120        0.75890        0.88810
O         -4.29600        0.70990        0.04690
H         -2.17240       -3.04390        0.42450
H         -2.33400       -2.65370       -1.32860
H         -3.80720       -3.03690       -0.27370
N         -6.53810       -0.48150       -0.39510
H         -5.54410       -2.13730        0.30810
H         -5.24070       -1.74240       -1.43810
H          1.69470       -0.88110       -0.25600
H         -0.33620        2.31250        1.67300
H         -0.49600       -1.93920       -0.70890
H         -2.48410        1.26410        1.24600
N          2.01500        1.48570        1.02620
C         -7.06200        0.02090       -1.60130
H          2.04670        2.35900        1.59500
H         -7.17230       -0.79300       -2.34110
H         -6.38110        0.82340       -2.01090
H         -6.30970        0.32530        0.18570
H          2.86020        1.12530        0.67260
H         -8.02640        0.44240       -1.40830
}
memory 100GB
set_num_threads(12)
psi4_io.set_default_path("/scratch/bdw2292/Psi4-farH_in17")
set maxiter 500
set freeze_core True
set PROPERTIES_ORIGIN ["COM"]
set cubeprop_tasks ['esp']
E, wfn = properties('hf/MINIX',properties=['dipole'],return_wfn=True)
cubeprop(wfn)
fchk(wfn, "farH_in17-esp_frag.fchk")
oeprop(wfn,"WIBERG_LOWDIN_INDICES","MULLIKEN_CHARGES")
clean()
--------------------------------------------------------------------------

    Molecular point group: c1

    Geometry (in Angstrom), charge = 0, multiplicity = 1:

       Center              X                  Y                   Z               Mass
    ------------   -----------------  -----------------  -----------------  -----------------
         C           -2.916978015434    -1.113297864400    -0.464636976886    12.000000000000
         C           -1.672878015434    -0.329497864400    -0.185536976886    12.000000000000
         N           -0.406178015434    -0.915397864400    -0.122036976886    14.003074004430
         C           -0.308278015434    -2.366997864400    -0.382236976886    12.000000000000
         C            0.809721984566    -0.252297864400     0.166063023114    12.000000000000
         C            3.301321984566     0.986702135600     0.688563023114    12.000000000000
         C            3.251021984566    -0.200097864400     0.024063023114    12.000000000000
         C            2.101821984566     1.567302135600     1.100463023114    12.000000000000
         C            2.030121984566    -0.801297864400    -0.229136976886    12.000000000000
         C            0.901421984566     0.948902135600     0.837063023114    12.000000000000
         O           -1.813378015434     0.899902135600    -0.004136976886    15.994914619570
         H            0.310221984566    -2.853897864400     0.373463023114     1.007825032230
         H            0.148621984566    -2.463697864400    -1.379636976886     1.007825032230
         H           -1.324578015434    -2.846897864400    -0.324736976886     1.007825032230
         N           -4.055478015434    -0.291497864400    -0.446136976886    14.003074004430
         H           -3.061478015434    -1.947297864400     0.257063023114     1.007825032230
         H           -2.758078015434    -1.552397864400    -1.489136976886     1.007825032230
         H            4.177321984566    -0.691097864400    -0.307036976886     1.007825032230
         H            2.146421984566     2.502502135600     1.621963023114     1.007825032230
         H            1.986621984566    -1.749197864400    -0.759936976886     1.007825032230
         H           -0.001478015434     1.454102135600     1.194963023114     1.007825032230
         N            4.497621984566     1.675702135600     0.975163023114    14.003074004430
         C           -4.579378015434     0.210902135600    -1.652336976886    12.000000000000
         H            4.529321984566     2.549002135600     1.543963023114     1.007825032230
         H           -4.689678015434    -0.602997864400    -2.392136976886     1.007825032230
         H           -3.898478015434     1.013402135600    -2.061936976886     1.007825032230
         H           -3.827078015434     0.515302135600     0.134663023114     1.007825032230
         H            5.342821984566     1.315302135600     0.621563023114     1.007825032230
         H           -5.543778015434     0.632402135600    -1.459336976886     1.007825032230

  Charge       = 0
  Multiplicity = 1
  Basis Set: MINIX
    Blend: MINIX
  Basis Set: (MINIX AUX)
    Blend: DEF2-SVP-JKFIT

    Orbital Energies [Eh]
    ---------------------

    Doubly Occupied:

       1A    -20.274566     2A    -15.452079     3A    -15.384272
       4A    -15.361884     5A    -11.311228     6A    -11.229445
       7A    -11.217829     8A    -11.214985     9A    -11.209637
      10A    -11.175539    11A    -11.168827    12A    -11.165433
      13A    -11.160990    14A    -11.154571    15A     -1.369862
      16A     -1.245378    17A     -1.215625    18A     -1.199367
      19A     -1.120945    20A     -1.018336    21A     -1.012351
      22A     -0.980578    23A     -0.943344    24A     -0.870335
      25A     -0.834856    26A     -0.811567    27A     -0.751712
      28A     -0.706446    29A     -0.691254    30A     -0.675913
      31A     -0.663958    32A     -0.647370    33A     -0.632042
      34A     -0.619941    35A     -0.601932    36A     -0.593760
      37A     -0.581982    38A     -0.571575    39A     -0.553257
      40A     -0.552287    41A     -0.542530    42A     -0.536649
      43A     -0.516154    44A     -0.500286    45A     -0.487806
      46A     -0.475529    47A     -0.451290    48A     -0.396055
      49A     -0.372499    50A     -0.347976    51A     -0.340372
      52A     -0.268918

  @DF-RHF Final Energy:  -621.28224270008513

   => Energetics <=

    Nuclear Repulsion Energy =            877.6935950394484962
    One-Electron Energy =               -2587.5851408960243134
    Two-Electron Energy =                1088.6093031564905687
    Total Energy =                       -621.2822427000851349

  Dipole Moment: [D]
     X:     2.4792      Y:    -2.0199      Z:    -0.5726     Total:     3.2487

  Basis Set: MINIX
    Blend: MINIX

  Mulliken Charges: (a.u.)
   Center  Symbol    Alpha    Beta     Spin     Total
       1     C     3.07395  3.07395  0.00000 -0.14790
       2     C     2.81090  2.81090  0.00000  0.37820
       3     N     3.65846  3.65846  0.00000 -0.31692
       4     C     3.11994  3.11994  0.00000 -0.23989
       5     C     2.96168  2.96168  0.00000  0.07664
       6     C     2.94780  2.94780  0.00000  0.10439
       7     C     3.08602  3.08602  0.00000 -0.17205
       8     C     3.08007  3.08007  0.00000 -0.16013
       9     C     3.06651  3.06651  0.00000 -0.13302
      10     C     3.06415  3.06415  0.00000 -0.12830
      11     O     4.21895  4.21895  0.00000 -0.43789
      12     H     0.42946  0.42946  0.00000  0.14108
      13     H     0.43314  0.43314  0.00000  0.13373
      14     H     0.42908  0.42908  0.00000  0.14184
      15     N     3.71273  3.71273  0.00000 -0.42547
      16     H     0.42909  0.42909  0.00000  0.14183
      17     H     0.42844  0.42844  0.00000  0.14312
      18     H     0.43282  0.43282  0.00000  0.13435
      19     H     0.43352  0.43352  0.00000  0.13296
      20     H     0.43370  0.43370  0.00000  0.13259
      21     H     0.41587  0.41587  0.00000  0.16826
      22     N     3.75266  3.75266  0.00000 -0.50532
      23     C     3.12585  3.12585  0.00000 -0.25170
      24     H     0.37870  0.37870  0.00000  0.24260
      25     H     0.43822  0.43822  0.00000  0.12356
      26     H     0.44195  0.44195  0.00000  0.11609
      27     H     0.37996  0.37996  0.00000  0.24008
      28     H     0.38192  0.38192  0.00000  0.23616
      29     H     0.43444  0.43444  0.00000  0.13111

   Total alpha = 52.00000, Total beta = 52.00000, Total charge = -0.00000

*** Psi4 exiting successfully. Buy a developer a beer!
