                               Psi4 1.5 release

  ==> Input File <==

--------------------------------------------------------------------------
molecule {
0 1
C 1.994301505923 -0.211658162718 -0.070296222764
N 0.854903800519 0.202013950616 -0.741037545898
C -0.415939995537 0.072106546847 -0.110302560673
C -0.821392755842 -1.156860426859 0.421217566511
C 0.922958378054 0.996407193685 -1.962907062903
C -1.279785269085 1.170915818145 -0.059433328715
C -2.079643554192 -1.272914133620 1.006004313592
C -2.948028257278 -0.181318167235 1.050856279041
C -2.543439866185 1.039792063826 0.514644033957
H -0.148669277917 -2.005268826405 0.383369382297
H -0.960430504540 2.133311974746 -0.450050299208
C 3.316196227787 0.070590793488 -0.754926217849
O 1.947668613211 -0.791803900165 1.013989340357
H -0.034319444208 0.909822433738 -2.477603531360
H 1.124708955613 2.057211137741 -1.771405242654
H 1.698373899559 0.608514206891 -2.623249884001
H -2.387577754466 -2.229719447638 1.419821763945
H -3.207910137145 1.899427732345 0.549243744584
H 3.408947266845 -0.490322372343 -1.689541664875
H 3.444699225443 1.131763109849 -0.983577297371
H -3.930916271418 -0.281514763374 1.503392329719
H 4.101975619080 -0.249206572024 -0.071944689464
no_reorient
}
memory 8.166666666666666GB
set_num_threads(2)
psi4_io.set_default_path("/scratch/bdw2292/Psi4-3_24_Index_0-farH_in17")
set freeze_core True
set PROPERTIES_ORIGIN ["COM"]
set cubeprop_tasks ['esp']
set basis 6-311G**
E, wfn = properties('mp2',properties=['dipole'],return_wfn=True)
cubeprop(wfn)
fchk(wfn, "3_24_Index_0-dma.fchk")
clean()
--------------------------------------------------------------------------

    Molecular point group: c1
  Charge       = 0
  Multiplicity = 1
  Basis Set: 6-311G**
    Blend: 6-311G**
  Basis Set: (6-311G** AUX)
    Blend: CC-PVTZ-JKFIT

    Orbital Energies [Eh]
    ---------------------

    Doubly Occupied:

       1A    -20.511467     2A    -15.593402     3A    -11.354930
       4A    -11.276505     5A    -11.276047     6A    -11.239986
       7A    -11.235706     8A    -11.234122     9A    -11.232535
      10A    -11.229665    11A    -11.228030    12A     -1.375596
      13A     -1.258460    14A     -1.141949    15A     -1.029997
      16A     -1.015260    17A     -0.993186    18A     -0.952680
      19A     -0.841118    20A     -0.825554    21A     -0.754257
      22A     -0.694864    23A     -0.678312    24A     -0.661068
      25A     -0.655836    26A     -0.617697    27A     -0.611897
      28A     -0.587132    29A     -0.583425    30A     -0.575607
      31A     -0.564061    32A     -0.558232    33A     -0.521271
      34A     -0.509494    35A     -0.495133    36A     -0.494039
      37A     -0.419690    38A     -0.402198    39A     -0.333946
      40A     -0.312725

  @DF-RHF Final Energy:  -476.64386066645369

   => Energetics <=

    Nuclear Repulsion Energy =            589.6900823693202938
    One-Electron Energy =               -1816.9137293152539314
    Two-Electron Energy =                 750.5797862794797766
    Total Energy =                       -476.6438606664537474
  Basis Set: (6-311G** AUX)
    Blend: CC-PVTZ-RI
    Molecular point group: c1

    Geometry (in Angstrom), charge = 0, multiplicity = 1:

       Center              X                  Y                   Z               Mass
    ------------   -----------------  -----------------  -----------------  -----------------
         C            1.994301505923    -0.211658162718    -0.070296222764    12.000000000000
         N            0.854903800519     0.202013950616    -0.741037545898    14.003074004430
         C           -0.415939995537     0.072106546847    -0.110302560673    12.000000000000
         C           -0.821392755842    -1.156860426859     0.421217566511    12.000000000000
         C            0.922958378054     0.996407193685    -1.962907062903    12.000000000000
         C           -1.279785269085     1.170915818145    -0.059433328715    12.000000000000
         C           -2.079643554192    -1.272914133620     1.006004313592    12.000000000000
         C           -2.948028257278    -0.181318167235     1.050856279041    12.000000000000
         C           -2.543439866185     1.039792063826     0.514644033957    12.000000000000
         H           -0.148669277917    -2.005268826405     0.383369382297     1.007825032230
         H           -0.960430504540     2.133311974746    -0.450050299208     1.007825032230
         C            3.316196227787     0.070590793488    -0.754926217849    12.000000000000
         O            1.947668613211    -0.791803900165     1.013989340357    15.994914619570
         H           -0.034319444208     0.909822433738    -2.477603531360     1.007825032230
         H            1.124708955613     2.057211137741    -1.771405242654     1.007825032230
         H            1.698373899559     0.608514206891    -2.623249884001     1.007825032230
         H           -2.387577754466    -2.229719447638     1.419821763945     1.007825032230
         H           -3.207910137145     1.899427732345     0.549243744584     1.007825032230
         H            3.408947266845    -0.490322372343    -1.689541664875     1.007825032230
         H            3.444699225443     1.131763109849    -0.983577297371     1.007825032230
         H           -3.930916271418    -0.281514763374     1.503392329719     1.007825032230
         H            4.101975619080    -0.249206572024    -0.071944689464     1.007825032230

  Basis Set: 6-311G**
    Blend: 6-311G**
  Basis Set: (6-311G** AUX)
    Blend: CC-PVTZ-JKFIT
	 Reference Energy          =    -476.6438606664536906 [Eh]
	 Singles Energy            =      -0.0000000000000000 [Eh]
	 Same-Spin Energy          =      -0.4261135293685543 [Eh]
	 Opposite-Spin Energy      =      -1.2068191624302367 [Eh]
	 Correlation Energy        =      -1.6329326917987910 [Eh]
	 Total Energy              =    -478.2767933582524620 [Eh]

	 ================> DF-SCS-MP2 Energies <==================
	-----------------------------------------------------------
	 SCS Same-Spin Scale       =       0.3333333333333333 [-]
	 SCS Opposite-Spin Scale   =       1.2000000000000000 [-]
	 SCS Same-Spin Energy      =      -0.1420378431228514 [Eh]
	 SCS Opposite-Spin Energy  =      -1.4481829949162839 [Eh]
	 SCS Correlation Energy    =      -1.5902208380391354 [Eh]
	 SCS Total Energy          =    -478.2340815044928490 [Eh]
	-----------------------------------------------------------

  Dipole Moment: [D]
     X:    -0.2688      Y:     1.6340      Z:    -3.0394     Total:     3.4612

  Basis Set: 6-311G**
    Blend: 6-311G**
*** Psi4 exiting successfully. Buy a developer a beer!
