                               Psi4 1.3.2 release

  ==> Input File <==

--------------------------------------------------------------------------
molecule {
0 1
 C    2.359600    1.218100    0.486500
 C    1.437300    0.255700    0.145600
 N    0.040400    0.504700    0.098800
 H   -0.253600    1.470200    0.343800
 C   -0.928600   -0.474400   -0.250800
 C    1.914300   -0.995400   -0.159400
 C    3.726200    0.938600    0.522400
 C    3.274400   -1.286400   -0.127300
 C    4.180500   -0.308900    0.216500
 H    2.002200    2.216200    0.731800
 H    1.231200   -1.799100   -0.436900
 H    4.440600    1.699900    0.790800
 H    3.644900   -2.279100   -0.369900
 N    5.569000   -0.661200    0.234100
 C   -2.329200   -0.022000   -0.265200
 C   -2.785700    1.253900   -0.206400
 C   -3.290500   -1.038400   -0.346000
 C   -4.148200    1.587200   -0.222700
 C   -4.633800   -0.740400   -0.363800
 C   -5.068900    0.566900   -0.302600
 H   -2.072200    2.056100   -0.147400
 H   -2.988500   -2.074400   -0.395700
 H   -4.460300    2.620900   -0.173400
 H   -5.369100   -1.549200   -0.427300
 H   -6.128600    0.750300   -0.319400
 H   -0.664400   -0.954200   -1.243700
 H   -0.901900   -1.361300    0.453800
 H    6.318500    0.041700    0.055800
 H    5.884600   -1.636400    0.426400
}
set {
  geom_maxiter 400
  g_convergence GAU
  dynamic_level 1
}
set optking {
  frozen_dihedral = ("
    2 3 5 15
, 5 3 2 1
, 3 5 15 16
, 28 14 9 7
  ")
}
memory 8.333333333333334GB
set_num_threads(1)
psi4_io.set_default_path("/scratch/bdw2292/Psi4-16_1_Index_0_GrowFragment_2-farH_in17")
for _ in range(1):
  try:
    set opt_coordinates both
    optimize('mp2/6-31G*')
    break
  except OptimizationConvergenceError:
    break
  else:
    try:
      set opt_coordinates cartesian
      optimize('mp2/6-31G*')
      break
    except OptimizationConvergenceError:
      pass
clean()
--------------------------------------------------------------------------

    Molecular point group: c1
  Charge       = 0
  Multiplicity = 1
  Basis Set: 6-31G*
    Blend: 6-31G*
  Basis Set: (6-31G* AUX)
    Blend: CC-PVDZ-JKFIT
  @DF-RHF Final Energy:  -609.29476544768522
    Total Energy =                       -609.2947654476852222
  Basis Set: (6-31G* AUX)
    Blend: CC-PVDZ-RI
    Molecular point group: c1
  Basis Set: 6-31G*
    Blend: 6-31G*
  Basis Set: (6-31G* AUX)
    Blend: CC-PVDZ-JKFIT
  Basis Set: (6-31G* AUX)
    Blend: CC-PVDZ-JKFIT
	 Reference Energy          =    -609.2947654476852222 [Eh]
	 Singles Energy            =      -0.0000000000000000 [Eh]
	 Same-Spin Energy          =      -0.5467477579113956 [Eh]
	 Opposite-Spin Energy      =      -1.4989136341278810 [Eh]
	 Correlation Energy        =      -2.0456613920392765 [Eh]
	 Total Energy              =    -611.3404268397245005 [Eh]
	 SCS Total Energy          =    -611.2757110612758424 [Eh]
  @DF-RHF Final Energy:  -609.30957817995727
    Total Energy =                       -609.3095781799572705
  @DF-RHF Final Energy:  -609.31215794409127
    Total Energy =                       -609.3121579440912683
  @DF-RHF Final Energy:  -609.30934005495601
    Total Energy =                       -609.3093400549560101
  @DF-RHF Final Energy:  -609.31707837070837
    Total Energy =                       -609.3170783707084865
  @DF-RHF Final Energy:  -609.32036748845212
    Total Energy =                       -609.3203674884521206
  @DF-RHF Final Energy:  -609.31730452824706
    Total Energy =                       -609.3173045282471776
  @DF-RHF Final Energy:  -609.32206403948157
    Total Energy =                       -609.3220640394815746
  @DF-RHF Final Energy:  -609.31864457194513
    Total Energy =                       -609.3186445719452422
  @DF-RHF Final Energy:  -609.32206404001965
    Total Energy =                       -609.3220640400197681
  @DF-RHF Final Energy:  -609.32168586949717
    Total Energy =                       -609.3216858694972871
  @DF-RHF Final Energy:  -609.32188249878573
    Total Energy =                       -609.3218824987857261
  @DF-RHF Final Energy:  -609.32210840711127
    Total Energy =                       -609.3221084071112728
  @DF-RHF Final Energy:  -609.32212549613189
    Total Energy =                       -609.3221254961317754
  Charge       = 0
  Multiplicity = 1
  Basis Set: 6-31G*
    Blend: 6-31G*
  Basis Set: (6-31G* AUX)
    Blend: CC-PVDZ-JKFIT

    Orbital Energies [Eh]
    ---------------------

    Doubly Occupied:

       1A    -15.561088     2A    -15.560310     3A    -11.264426
       4A    -11.261522     5A    -11.260528     6A    -11.240304
       7A    -11.234068     8A    -11.232804     9A    -11.230978
      10A    -11.230199    11A    -11.227686    12A    -11.227425
      13A    -11.227225    14A    -11.226010    15A    -11.224189
      16A     -1.234441    17A     -1.209381    18A     -1.146384
      19A     -1.106902    20A     -1.032207    21A     -1.007564
      22A     -1.007060    23A     -0.965684    24A     -0.906487
      25A     -0.831853    26A     -0.822874    27A     -0.797354
      28A     -0.783831    29A     -0.709365    30A     -0.690323
      31A     -0.675731    32A     -0.664038    33A     -0.644830
      34A     -0.629751    35A     -0.607861    36A     -0.601659
      37A     -0.593599    38A     -0.577957    39A     -0.576192
      40A     -0.561562    41A     -0.550459    42A     -0.530883
      43A     -0.518655    44A     -0.492547    45A     -0.486680
      46A     -0.481464    47A     -0.478988    48A     -0.458286
      49A     -0.393082    50A     -0.332139    51A     -0.329826
      52A     -0.319966    53A     -0.264300

  @DF-RHF Final Energy:  -609.32212372625975

   => Energetics <=

    Nuclear Repulsion Energy =            868.1452410592009983
    One-Electron Energy =               -2548.4728823618597744
    Two-Electron Energy =                1071.0055175763991429
    Total Energy =                       -609.3221237262596333

  Dipole Moment: [D]
     X:     0.2861      Y:    -0.0649      Z:    -0.5103     Total:     0.5886

  Basis Set: (6-31G* AUX)
    Blend: CC-PVDZ-RI
    Molecular point group: c1
  Basis Set: 6-31G*
    Blend: 6-31G*
  Basis Set: (6-31G* AUX)
    Blend: CC-PVDZ-JKFIT
  Basis Set: (6-31G* AUX)
    Blend: CC-PVDZ-JKFIT
	 Reference Energy          =    -609.3221237262597469 [Eh]
	 Singles Energy            =      -0.0000000000000000 [Eh]
	 Same-Spin Energy          =      -0.5463762500699253 [Eh]
	 Opposite-Spin Energy      =      -1.5009128448203979 [Eh]
	 Correlation Energy        =      -2.0472890948903233 [Eh]
	 Total Energy              =    -611.3694128211500356 [Eh]

	 ================> DF-SCS-MP2 Energies <==================
	-----------------------------------------------------------
	 SCS Same-Spin Scale       =       0.3333333333333333 [-]
	 SCS Opposite-Spin Scale   =       1.2000000000000000 [-]
	 SCS Same-Spin Energy      =      -0.1821254166899751 [Eh]
	 SCS Opposite-Spin Energy  =      -1.8010954137844775 [Eh]
	 SCS Correlation Energy    =      -1.9832208304744525 [Eh]
	 SCS Total Energy          =    -611.3053445567342123 [Eh]
	-----------------------------------------------------------

  -Total Gradient:
     Atom            X                  Y                   Z
    ------   -----------------  -----------------  -----------------
       1        0.000140452947     0.000317059146    -0.001685940402
       2       -0.000198839876    -0.000498658259     0.002623031383
       3        0.000119870670     0.000347960579    -0.001772580950
       4        0.000004831128    -0.000000501260    -0.000014024914
       5       -0.000104740234    -0.000121381363     0.002212178360
       6        0.000040365207    -0.000023521481    -0.000026067752
       7        0.000021336610     0.000063488641    -0.000272162293
       8       -0.000073156670    -0.000001371725     0.000026836998
       9       -0.000029194654    -0.000064373302     0.000522056662
      10        0.000006430391     0.000004168618     0.000004758885
      11       -0.000012427927    -0.000000264858     0.000002131271
      12        0.000001990831     0.000009949321     0.000000035287
      13        0.000006629596    -0.000006421860    -0.000005825426
      14        0.000025113736    -0.000077074841    -0.000618237558
      15        0.000125210375    -0.000096331322    -0.004096886877
      16       -0.000067166966     0.000059394597     0.002742493640
      17       -0.000015644754    -0.000002407525     0.000000638575
      18       -0.000017971697    -0.000006591526    -0.000004494483
      19        0.000017532373    -0.000022445087     0.000002877315
      20       -0.000002267816     0.000027898136    -0.000002987238
      21        0.000011648145     0.000009856156     0.000004447735
      22        0.000004904710    -0.000004389925     0.000001225477
      23        0.000004990012     0.000005660056     0.000000828541
      24       -0.000002086750     0.000000673666    -0.000003775346
      25        0.000001918084    -0.000003362004     0.000003194086
      26       -0.000009441153    -0.000009176237    -0.000011897707
      27       -0.000006596912     0.000005698783     0.000000231869
      28        0.000000604556     0.000093126657     0.000374971232
      29        0.000005706040    -0.000006661783    -0.000007056370

  **** Optimization is complete! (in 6 steps) ****
    Final optimized geometry and variables:
    Molecular point group: c1

    Geometry (in Angstrom), charge = 0, multiplicity = 1:

    C            2.307559424336     1.091830931005     0.465806993165
    C            1.378192591645     0.076967092453     0.191493249008
    N            0.009609183072     0.424545974408     0.130286466525
    H           -0.267956480503     0.959883864743     0.950630413263
    C           -0.951312041798    -0.624168087355    -0.153494952031
    C            1.868480140197    -1.196857997227    -0.119072722416
    C            3.669930294303     0.828637863616     0.502070178836
    C            3.239959742373    -1.453660244190    -0.101954673158
    C            4.162399942306    -0.446144312422     0.189105940035
    H            1.945230349269     2.096621599752     0.675417448697
    H            1.190233288884    -2.015371287608    -0.337880911193
    H            4.366467683674     1.633652919952     0.730887566098
    H            3.597043785960    -2.455157535726    -0.336540890223
    N            5.540076962459    -0.728936341859     0.275205283807
    C           -2.364836013703    -0.092547340654    -0.208812465329
    C           -2.646136786210     1.275767731329    -0.251091689325
    C           -3.430311081827    -1.000100132281    -0.179993630056
    C           -3.967526545413     1.724430819239    -0.286563910747
    C           -4.748859420626    -0.554084729516    -0.222764255835
    C           -5.022249869938     0.814023722649    -0.267297134852
    H           -1.828131132335     1.988090921389    -0.302703455711
    H           -3.223535947830    -2.068216756237    -0.128843088847
    H           -4.171072082115     2.791924811183    -0.323351750805
    H           -5.564057582018    -1.273215176080    -0.203798362897
    H           -6.050296617139     1.165905913538    -0.293322674878
    H           -0.688605773660    -1.052689690728    -1.129253566147
    H           -0.911010011651    -1.456596325245     0.571370851208
    H            6.117449479496     0.092416216965     0.123546832823
    H            5.829420990876    -1.465709946701    -0.360608691823

*** Psi4 exiting successfully. Buy a developer a beer!
