                               Psi4 1.3.2 release

  ==> Input File <==

--------------------------------------------------------------------------
molecule {
0 1
C 2.307559424336 1.091830931005 0.465806993165
C 1.378192591645 0.076967092453 0.191493249008
N 0.009609183072 0.424545974408 0.130286466525
H -0.267956480503 0.959883864743 0.950630413263
C -0.951312041798 -0.624168087355 -0.153494952031
C 1.868480140197 -1.196857997227 -0.119072722416
C 3.669930294303 0.828637863616 0.502070178836
C 3.239959742373 -1.453660244190 -0.101954673158
C 4.162399942306 -0.446144312422 0.189105940035
H 1.945230349269 2.096621599752 0.675417448697
H 1.190233288884 -2.015371287608 -0.337880911193
H 4.366467683674 1.633652919952 0.730887566098
H 3.597043785960 -2.455157535726 -0.336540890223
N 5.540076962459 -0.728936341859 0.275205283807
C -2.364836013703 -0.092547340654 -0.208812465329
C -2.646136786210 1.275767731329 -0.251091689325
C -3.430311081827 -1.000100132281 -0.179993630056
C -3.967526545413 1.724430819239 -0.286563910747
C -4.748859420626 -0.554084729516 -0.222764255835
C -5.022249869938 0.814023722649 -0.267297134852
H -1.828131132335 1.988090921389 -0.302703455711
H -3.223535947830 -2.068216756237 -0.128843088847
H -4.171072082115 2.791924811183 -0.323351750805
H -5.564057582018 -1.273215176080 -0.203798362897
H -6.050296617139 1.165905913538 -0.293322674878
H -0.688605773660 -1.052689690728 -1.129253566147
H -0.911010011651 -1.456596325245 0.571370851208
H 6.117449479496 0.092416216965 0.123546832823
H 5.829420990876 -1.465709946701 -0.360608691823
}
memory 8.333333333333334GB
set_num_threads(1)
psi4_io.set_default_path("/scratch/bdw2292/Psi4-16_1_Index_0_GrowFragment_2-farH_in17")
set freeze_core True
set PROPERTIES_ORIGIN ["COM"]
set cubeprop_tasks ['esp']
E, wfn = properties('mp2/6-311G**',properties=['dipole'],return_wfn=True)
cubeprop(wfn)
fchk(wfn, "16_1_Index_0_GrowFragment_2-dma.fchk")
clean()
--------------------------------------------------------------------------

    Molecular point group: c1
  Charge       = 0
  Multiplicity = 1
  Basis Set: 6-311G**
    Blend: 6-311G**
  Basis Set: (6-311G** AUX)
    Blend: CC-PVTZ-JKFIT

    Orbital Energies [Eh]
    ---------------------

    Doubly Occupied:

       1A    -15.555415     2A    -15.553071     3A    -11.265620
       4A    -11.262784     5A    -11.261987     6A    -11.242042
       7A    -11.235131     8A    -11.233939     9A    -11.231777
      10A    -11.230885    11A    -11.228637    12A    -11.227993
      13A    -11.227593    14A    -11.226425    15A    -11.224377
      16A     -1.237288    17A     -1.211650    18A     -1.150977
      19A     -1.110651    20A     -1.036046    21A     -1.011889
      22A     -1.010828    23A     -0.969317    24A     -0.909555
      25A     -0.835452    26A     -0.827022    27A     -0.801209
      28A     -0.787319    29A     -0.713096    30A     -0.694069
      31A     -0.678818    32A     -0.666723    33A     -0.648173
      34A     -0.632613    35A     -0.611037    36A     -0.605130
      37A     -0.597804    38A     -0.581963    39A     -0.579849
      40A     -0.565245    41A     -0.553447    42A     -0.534670
      43A     -0.522455    44A     -0.496675    45A     -0.490506
      46A     -0.485431    47A     -0.482477    48A     -0.462114
      49A     -0.397403    50A     -0.336438    51A     -0.334591
      52A     -0.324359    53A     -0.268413

  @DF-RHF Final Energy:  -609.46325662535764

   => Energetics <=

    Nuclear Repulsion Energy =            868.1452410591804210
    One-Electron Energy =               -2548.4762406477066179
    Two-Electron Energy =                1070.8677429631684390
    Total Energy =                       -609.4632566253576442
  Basis Set: (6-311G** AUX)
    Blend: CC-PVTZ-RI
    Molecular point group: c1

    Geometry (in Angstrom), charge = 0, multiplicity = 1:

       Center              X                  Y                   Z               Mass
    ------------   -----------------  -----------------  -----------------  -----------------
         C            2.307559424336     1.091830931005     0.465806993165    12.000000000000
         C            1.378192591645     0.076967092453     0.191493249008    12.000000000000
         N            0.009609183072     0.424545974408     0.130286466525    14.003074004430
         H           -0.267956480503     0.959883864743     0.950630413263     1.007825032230
         C           -0.951312041798    -0.624168087355    -0.153494952031    12.000000000000
         C            1.868480140197    -1.196857997227    -0.119072722416    12.000000000000
         C            3.669930294303     0.828637863616     0.502070178836    12.000000000000
         C            3.239959742373    -1.453660244190    -0.101954673158    12.000000000000
         C            4.162399942306    -0.446144312422     0.189105940035    12.000000000000
         H            1.945230349269     2.096621599752     0.675417448697     1.007825032230
         H            1.190233288884    -2.015371287608    -0.337880911193     1.007825032230
         H            4.366467683674     1.633652919952     0.730887566098     1.007825032230
         H            3.597043785960    -2.455157535726    -0.336540890223     1.007825032230
         N            5.540076962459    -0.728936341859     0.275205283807    14.003074004430
         C           -2.364836013703    -0.092547340654    -0.208812465329    12.000000000000
         C           -2.646136786210     1.275767731329    -0.251091689325    12.000000000000
         C           -3.430311081827    -1.000100132281    -0.179993630056    12.000000000000
         C           -3.967526545413     1.724430819239    -0.286563910747    12.000000000000
         C           -4.748859420626    -0.554084729516    -0.222764255835    12.000000000000
         C           -5.022249869938     0.814023722649    -0.267297134852    12.000000000000
         H           -1.828131132335     1.988090921389    -0.302703455711     1.007825032230
         H           -3.223535947830    -2.068216756237    -0.128843088847     1.007825032230
         H           -4.171072082115     2.791924811183    -0.323351750805     1.007825032230
         H           -5.564057582018    -1.273215176080    -0.203798362897     1.007825032230
         H           -6.050296617139     1.165905913538    -0.293322674878     1.007825032230
         H           -0.688605773660    -1.052689690728    -1.129253566147     1.007825032230
         H           -0.911010011651    -1.456596325245     0.571370851208     1.007825032230
         H            6.117449479496     0.092416216965     0.123546832823     1.007825032230
         H            5.829420990876    -1.465709946701    -0.360608691823     1.007825032230

  Basis Set: 6-311G**
    Blend: 6-311G**
  Basis Set: (6-311G** AUX)
    Blend: CC-PVTZ-JKFIT
	 Reference Energy          =    -609.4632566253576442 [Eh]
	 Singles Energy            =      -0.0000000000000000 [Eh]
	 Same-Spin Energy          =      -0.5699319704233173 [Eh]
	 Opposite-Spin Energy      =      -1.5829833947532967 [Eh]
	 Correlation Energy        =      -2.1529153651766140 [Eh]
	 Total Energy              =    -611.6161719905342125 [Eh]

	 ================> DF-SCS-MP2 Energies <==================
	-----------------------------------------------------------
	 SCS Same-Spin Scale       =       0.3333333333333333 [-]
	 SCS Opposite-Spin Scale   =       1.2000000000000000 [-]
	 SCS Same-Spin Energy      =      -0.1899773234744391 [Eh]
	 SCS Opposite-Spin Energy  =      -1.8995800737039561 [Eh]
	 SCS Correlation Energy    =      -2.0895573971783952 [Eh]
	 SCS Total Energy          =    -611.5528140225360403 [Eh]
	-----------------------------------------------------------

  Dipole Moment: [D]
     X:     0.4169      Y:    -0.1013      Z:    -0.4382     Total:     0.6133

  Basis Set: 6-311G**
    Blend: 6-311G**
*** Psi4 exiting successfully. Buy a developer a beer!
