                               Psi4 1.3.2 release

  ==> Input File <==

--------------------------------------------------------------------------
molecule {
0 1
C         -5.39960       -1.30330       -0.41360
C         -4.15550       -0.51950       -0.13450
N         -2.88880       -1.10540       -0.07100
C         -2.79090       -2.55700       -0.33120
C         -1.67290       -0.44230        0.21710
C          0.81870        0.79670        0.73960
C          0.76840       -0.39010        0.07510
C         -0.38080        1.37730        1.15150
C         -0.45250       -0.99130       -0.17810
C         -1.58120        0.75890        0.88810
O         -4.29600        0.70990        0.04690
H         -2.17240       -3.04390        0.42450
H         -2.33400       -2.65370       -1.32860
H         -3.80720       -3.03690       -0.27370
N         -6.53810       -0.48150       -0.39510
H         -5.54410       -2.13730        0.30810
H         -5.24070       -1.74240       -1.43810
H          1.69470       -0.88110       -0.25600
H         -0.33620        2.31250        1.67300
H         -0.49600       -1.93920       -0.70890
H         -2.48410        1.26410        1.24600
N          2.01500        1.48570        1.02620
C         -6.95280        0.08910        0.82430
H          2.04670        2.35900        1.59500
H         -6.37020        1.01670        1.06340
H         -6.70880       -0.63220        1.65040
H         -7.31630       -1.04230       -0.74190
H          2.86020        1.12530        0.67260
H         -7.99610        0.31140        0.74040
}
memory 100GB
set_num_threads(12)
psi4_io.set_default_path("/scratch/bdw2292/Psi4-farH_in17")
set maxiter 500
set freeze_core True
set PROPERTIES_ORIGIN ["COM"]
set cubeprop_tasks ['esp']
E, wfn = properties('hf/MINIX',properties=['dipole'],return_wfn=True)
cubeprop(wfn)
fchk(wfn, "farH_in17-esp_frag.fchk")
oeprop(wfn,"WIBERG_LOWDIN_INDICES","MULLIKEN_CHARGES")
clean()
--------------------------------------------------------------------------

    Molecular point group: c1

    Geometry (in Angstrom), charge = 0, multiplicity = 1:

       Center              X                  Y                   Z               Mass
    ------------   -----------------  -----------------  -----------------  -----------------
         C           -2.921144162475    -1.111562916564    -0.658602656054    12.000000000000
         C           -1.677044162475    -0.327762916564    -0.379502656054    12.000000000000
         N           -0.410344162475    -0.913662916564    -0.316002656054    14.003074004430
         C           -0.312444162475    -2.365262916564    -0.576202656054    12.000000000000
         C            0.805555837525    -0.250562916564    -0.027902656054    12.000000000000
         C            3.297155837525     0.988437083436     0.494597343946    12.000000000000
         C            3.246855837525    -0.198362916564    -0.169902656054    12.000000000000
         C            2.097655837525     1.569037083436     0.906497343946    12.000000000000
         C            2.025955837525    -0.799562916564    -0.423102656054    12.000000000000
         C            0.897255837525     0.950637083436     0.643097343946    12.000000000000
         O           -1.817544162475     0.901637083436    -0.198102656054    15.994914619570
         H            0.306055837525    -2.852162916564     0.179497343946     1.007825032230
         H            0.144455837525    -2.461962916564    -1.573602656054     1.007825032230
         H           -1.328744162475    -2.845162916564    -0.518702656054     1.007825032230
         N           -4.059644162475    -0.289762916564    -0.640102656054    14.003074004430
         H           -3.065644162475    -1.945562916564     0.063097343946     1.007825032230
         H           -2.762244162475    -1.550662916564    -1.683102656054     1.007825032230
         H            4.173155837525    -0.689362916564    -0.501002656054     1.007825032230
         H            2.142255837525     2.504237083436     1.427997343946     1.007825032230
         H            1.982455837525    -1.747462916564    -0.953902656054     1.007825032230
         H           -0.005644162475     1.455837083436     1.000997343946     1.007825032230
         N            4.493455837525     1.677437083436     0.781197343946    14.003074004430
         C           -4.474344162475     0.280837083436     0.579297343946    12.000000000000
         H            4.525155837525     2.550737083436     1.349997343946     1.007825032230
         H           -3.891744162475     1.208437083436     0.818397343946     1.007825032230
         H           -4.230344162475    -0.440462916564     1.405397343946     1.007825032230
         H           -4.837844162475    -0.850562916564    -0.986902656054     1.007825032230
         H            5.338655837525     1.317037083436     0.427597343946     1.007825032230
         H           -5.517644162475     0.503137083436     0.495397343946     1.007825032230

  Charge       = 0
  Multiplicity = 1
  Basis Set: MINIX
    Blend: MINIX
  Basis Set: (MINIX AUX)
    Blend: DEF2-SVP-JKFIT

    Orbital Energies [Eh]
    ---------------------

    Doubly Occupied:

       1A    -20.269238     2A    -15.445234     3A    -15.381350
       4A    -15.372633     5A    -11.304139     6A    -11.225919
       7A    -11.217259     8A    -11.214395     9A    -11.207040
      10A    -11.169777    11A    -11.165085    12A    -11.161629
      13A    -11.157781    14A    -11.151271    15A     -1.357124
      16A     -1.239028    17A     -1.220174    18A     -1.196125
      19A     -1.117503    20A     -1.014949    21A     -1.009195
      22A     -0.977757    23A     -0.939069    24A     -0.870782
      25A     -0.832073    26A     -0.808620    27A     -0.742908
      28A     -0.701118    29A     -0.686683    30A     -0.678060
      31A     -0.660401    32A     -0.639100    33A     -0.638281
      34A     -0.612796    35A     -0.608370    36A     -0.585519
      37A     -0.579536    38A     -0.566856    39A     -0.550000
      40A     -0.544440    41A     -0.540117    42A     -0.533237
      43A     -0.511119    44A     -0.500739    45A     -0.490405
      46A     -0.471632    47A     -0.444439    48A     -0.382234
      49A     -0.364609    50A     -0.344584    51A     -0.341232
      52A     -0.264460

  @DF-RHF Final Energy:  -621.27247038321366

   => Energetics <=

    Nuclear Repulsion Energy =            881.2399886996337273
    One-Electron Energy =               -2595.0088720219960123
    Two-Electron Energy =                1092.4964129391487404
    Total Energy =                       -621.2724703832136584

  Dipole Moment: [D]
     X:     1.0151      Y:    -3.7202      Z:     0.5836     Total:     3.9001

  Basis Set: MINIX
    Blend: MINIX

  Mulliken Charges: (a.u.)
   Center  Symbol    Alpha    Beta     Spin     Total
       1     C     3.07190  3.07190  0.00000 -0.14380
       2     C     2.80914  2.80914  0.00000  0.38172
       3     N     3.65941  3.65941  0.00000 -0.31882
       4     C     3.11992  3.11992  0.00000 -0.23983
       5     C     2.96114  2.96114  0.00000  0.07773
       6     C     2.94825  2.94825  0.00000  0.10351
       7     C     3.08614  3.08614  0.00000 -0.17228
       8     C     3.08008  3.08008  0.00000 -0.16017
       9     C     3.06692  3.06692  0.00000 -0.13383
      10     C     3.06423  3.06423  0.00000 -0.12847
      11     O     4.20746  4.20746  0.00000 -0.41492
      12     H     0.43026  0.43026  0.00000  0.13948
      13     H     0.43308  0.43308  0.00000  0.13385
      14     H     0.43102  0.43102  0.00000  0.13796
      15     N     3.70366  3.70366  0.00000 -0.40732
      16     H     0.44005  0.44005  0.00000  0.11990
      17     H     0.42640  0.42640  0.00000  0.14720
      18     H     0.43323  0.43323  0.00000  0.13355
      19     H     0.43376  0.43376  0.00000  0.13249
      20     H     0.43410  0.43410  0.00000  0.13181
      21     H     0.41574  0.41574  0.00000  0.16853
      22     N     3.75280  3.75280  0.00000 -0.50560
      23     C     3.12563  3.12563  0.00000 -0.25125
      24     H     0.37898  0.37898  0.00000  0.24204
      25     H     0.42404  0.42404  0.00000  0.15191
      26     H     0.44948  0.44948  0.00000  0.10104
      27     H     0.39491  0.39491  0.00000  0.21017
      28     H     0.38221  0.38221  0.00000  0.23558
      29     H     0.43607  0.43607  0.00000  0.12786

   Total alpha = 52.00000, Total beta = 52.00000, Total charge =  0.00000

*** Psi4 exiting successfully. Buy a developer a beer!
