                               Psi4 1.3.2 release

  ==> Input File <==

--------------------------------------------------------------------------
molecule {
0 1
C          7.66120       -0.60180        0.67160
C          8.61540       -0.66340       -0.41090
O          9.88110       -1.19320       -0.20240
C         10.88430       -1.30570       -1.16640
C          6.39930       -0.06410        0.46320
C          5.45820        0.01300        1.45740
C          5.83990       -0.47630        2.69740
C          7.09490       -1.01690        2.92680
C          8.00280       -1.07540        1.90020
O          8.34630       -0.25270       -1.54960
H         11.46170       -0.35010       -1.31830
H         11.65550       -2.04620       -0.79340
H         10.55500       -1.62530       -2.15950
H          6.14600        0.33410       -0.49780
H          7.34390       -1.39140        3.92730
H          9.00180       -1.50930        2.09970
H          4.52080        0.41180        1.29250
H          5.16520       -0.43640        3.47730
}
memory 100GB
set_num_threads(12)
psi4_io.set_default_path("/scratch/bdw2292/Psi4-farH_in17")
set maxiter 500
set freeze_core True
set PROPERTIES_ORIGIN ["COM"]
set cubeprop_tasks ['esp']
E, wfn = properties('hf/MINIX',properties=['dipole'],return_wfn=True)
cubeprop(wfn)
fchk(wfn, "farH_in17-esp_frag.fchk")
oeprop(wfn,"WIBERG_LOWDIN_INDICES","MULLIKEN_CHARGES")
clean()
--------------------------------------------------------------------------

    Molecular point group: c1

    Geometry (in Angstrom), charge = 0, multiplicity = 1:

       Center              X                  Y                   Z               Mass
    ------------   -----------------  -----------------  -----------------  -----------------
         C           -0.257680157524     0.074989034654     0.079743775062    12.000000000000
         C            0.696519842476     0.013389034654    -1.002756224938    12.000000000000
         O            1.962219842476    -0.516410965346    -0.794256224938    15.994914619570
         C            2.965419842476    -0.628910965346    -1.758256224938    12.000000000000
         C           -1.519580157524     0.612689034654    -0.128656224938    12.000000000000
         C           -2.460680157524     0.689789034654     0.865543775062    12.000000000000
         C           -2.078980157524     0.200489034654     2.105543775062    12.000000000000
         C           -0.823980157524    -0.340110965346     2.334943775062    12.000000000000
         C            0.083919842476    -0.398610965346     1.308343775062    12.000000000000
         O            0.427419842476     0.424089034654    -2.141456224938    15.994914619570
         H            3.542819842476     0.326689034654    -1.910156224938     1.007825032230
         H            3.736619842476    -1.369410965346    -1.385256224938     1.007825032230
         H            2.636119842476    -0.948510965346    -2.751356224938     1.007825032230
         H           -1.772880157524     1.010889034654    -1.089656224938     1.007825032230
         H           -0.574980157524    -0.714610965346     3.335443775062     1.007825032230
         H            1.082919842476    -0.832510965346     1.507843775062     1.007825032230
         H           -3.398080157524     1.088589034654     0.700643775062     1.007825032230
         H           -2.753680157524     0.240389034654     2.885443775062     1.007825032230

  Charge       = 0
  Multiplicity = 1
  Basis Set: MINIX
    Blend: MINIX
  Basis Set: (MINIX AUX)
    Blend: DEF2-SVP-JKFIT

    Orbital Energies [Eh]
    ---------------------

    Doubly Occupied:

       1A    -20.354106     2A    -20.313829     3A    -11.356624
       4A    -11.235355     5A    -11.217982     6A    -11.203813
       7A    -11.203469     8A    -11.201232     9A    -11.195939
      10A    -11.190947    11A     -1.432556    12A     -1.328038
      13A     -1.197917    14A     -1.071803    15A     -1.048459
      16A     -0.962634    17A     -0.879962    18A     -0.849118
      19A     -0.781019    20A     -0.731924    21A     -0.686913
      22A     -0.657076    23A     -0.653209    24A     -0.641229
      25A     -0.611955    26A     -0.606197    27A     -0.579855
      28A     -0.570703    29A     -0.522693    30A     -0.518126
      31A     -0.509549    32A     -0.473483    33A     -0.418043
      34A     -0.411796    35A     -0.374650    36A     -0.362351

  @DF-RHF Final Energy:  -454.17025121875781

   => Energetics <=

    Nuclear Repulsion Energy =            489.9764148873740055
    One-Electron Energy =               -1589.5843111083886470
    Two-Electron Energy =                 645.4376450022568861
    Total Energy =                       -454.1702512187578122

  Dipole Moment: [D]
     X:     0.2781      Y:    -0.5817      Z:     1.8057     Total:     1.9174

  Basis Set: MINIX
    Blend: MINIX

  Mulliken Charges: (a.u.)
   Center  Symbol    Alpha    Beta     Spin     Total
       1     C     3.03240  3.03240  0.00000 -0.06479
       2     C     2.76080  2.76080  0.00000  0.47840
       3     O     4.22309  4.22309  0.00000 -0.44618
       4     C     3.07200  3.07200  0.00000 -0.14399
       5     C     3.05019  3.05019  0.00000 -0.10037
       6     C     3.07657  3.07657  0.00000 -0.15314
       7     C     3.06130  3.06130  0.00000 -0.12261
       8     C     3.07063  3.07063  0.00000 -0.14127
       9     C     3.05262  3.05262  0.00000 -0.10525
      10     O     4.20264  4.20264  0.00000 -0.40528
      11     H     0.43179  0.43179  0.00000  0.13641
      12     H     0.42797  0.42797  0.00000  0.14406
      13     H     0.42706  0.42706  0.00000  0.14587
      14     H     0.41688  0.41688  0.00000  0.16623
      15     H     0.42617  0.42617  0.00000  0.14765
      16     H     0.41621  0.41621  0.00000  0.16759
      17     H     0.42436  0.42436  0.00000  0.15128
      18     H     0.42731  0.42731  0.00000  0.14538

   Total alpha = 36.00000, Total beta = 36.00000, Total charge =  0.00000

*** Psi4 exiting successfully. Buy a developer a beer!
