                               Psi4 1.5 release

  ==> Input File <==

--------------------------------------------------------------------------
molecule {
0 1
 C    0.965666   -1.211251   -0.368472
 N   -0.454410   -1.146673   -0.624314
 C   -1.162112   -0.008973   -0.225456
 C   -1.984957   -0.032709    0.862670
 H   -0.903894   -1.994455   -0.283700
 C   -0.806404    1.235028   -0.949395
 C   -2.860284    1.003912    1.407513
 N   -3.086328   -0.846833    2.675814
 C   -2.204699   -1.239937    1.687760
 C   -3.483956    0.489172    2.487188
 C   -0.526536    2.427692   -0.271177
 C   -0.680509    1.198914   -2.343561
 C   -0.159378    3.569667   -0.976952
 C   -0.320182    2.342953   -3.047859
 C   -0.062291    3.531881   -2.366715
 C    1.780321   -1.932231   -1.240508
 C    1.545165   -0.557863    0.716021
 C    3.147967   -2.019935   -1.023085
 C    2.913731   -0.645345    0.942645
 C    3.737189   -1.383525    0.081258
 H   -3.424415   -1.472865    3.380634
 O   -1.736018   -2.394655    1.555030
 H   -0.575724    2.450153    0.808955
 H   -0.863333    0.266262   -2.858243
 H    0.065518    4.482952   -0.442677
 H   -0.233893    2.306560   -4.125280
 H    0.225489    4.419357   -2.913900
 H    1.333168   -2.400416   -2.106704
 H    0.922760    0.005379    1.398564
 H    3.773105   -2.561372   -1.721805
 H    3.348165   -0.140809    1.796765
 N    5.113714   -1.438255    0.274826
 H   -2.990687    1.994802    1.011242
 H   -4.194708    0.945599    3.152711
 H    5.623690   -2.237392   -0.050812
 H    5.511351   -0.955629    1.058312
}
memory 8.166666666666666GB
set_num_threads(2)
psi4_io.set_default_path("/scratch/bdw2292/Psi4-1_7_Index_0_GrowFragment_0-farH_in17")
set freeze_core True
E, wfn = energy('wb97x-d/6-311+G*',return_wfn=True)
oeprop(wfn,"WIBERG_LOWDIN_INDICES")
clean()
--------------------------------------------------------------------------

    Molecular point group: c1

    Geometry (in Angstrom), charge = 0, multiplicity = 1:

       Center              X                  Y                   Z               Mass
    ------------   -----------------  -----------------  -----------------  -----------------
         C            0.965665986558    -1.211250970171    -0.368472048503    12.000000000000
         N           -0.454410013442    -1.146672970171    -0.624314048503    14.003074004430
         C           -1.162112013442    -0.008972970171    -0.225456048503    12.000000000000
         C           -1.984957013442    -0.032708970171     0.862669951497    12.000000000000
         H           -0.903894013442    -1.994454970171    -0.283700048503     1.007825032230
         C           -0.806404013442     1.235028029829    -0.949395048503    12.000000000000
         C           -2.860284013442     1.003912029829     1.407512951497    12.000000000000
         N           -3.086328013442    -0.846832970171     2.675813951497    14.003074004430
         C           -2.204699013442    -1.239936970171     1.687759951497    12.000000000000
         C           -3.483956013442     0.489172029829     2.487187951497    12.000000000000
         C           -0.526536013442     2.427692029829    -0.271177048503    12.000000000000
         C           -0.680509013442     1.198914029829    -2.343561048503    12.000000000000
         C           -0.159378013442     3.569667029829    -0.976952048503    12.000000000000
         C           -0.320182013442     2.342953029829    -3.047859048503    12.000000000000
         C           -0.062291013442     3.531881029829    -2.366715048503    12.000000000000
         C            1.780320986558    -1.932230970171    -1.240508048503    12.000000000000
         C            1.545164986558    -0.557862970171     0.716020951497    12.000000000000
         C            3.147966986558    -2.019934970171    -1.023085048503    12.000000000000
         C            2.913730986558    -0.645344970171     0.942644951497    12.000000000000
         C            3.737188986558    -1.383524970171     0.081257951497    12.000000000000
         H           -3.424415013442    -1.472864970171     3.380633951497     1.007825032230
         O           -1.736018013442    -2.394654970171     1.555029951497    15.994914619570
         H           -0.575724013442     2.450153029829     0.808954951497     1.007825032230
         H           -0.863333013442     0.266262029829    -2.858243048503     1.007825032230
         H            0.065517986558     4.482952029829    -0.442677048503     1.007825032230
         H           -0.233893013442     2.306560029829    -4.125280048503     1.007825032230
         H            0.225488986558     4.419357029829    -2.913900048503     1.007825032230
         H            1.333167986558    -2.400415970171    -2.106704048503     1.007825032230
         H            0.922759986558     0.005379029829     1.398563951497     1.007825032230
         H            3.773104986558    -2.561371970171    -1.721805048503     1.007825032230
         H            3.348164986558    -0.140808970171     1.796764951497     1.007825032230
         N            5.113713986558    -1.438254970171     0.274825951497    14.003074004430
         H           -2.990687013442     1.994802029829     1.011241951497     1.007825032230
         H           -4.194708013442     0.945599029829     3.152710951497     1.007825032230
         H            5.623689986558    -2.237391970171    -0.050812048503     1.007825032230
         H            5.511350986558    -0.955628970171     1.058311951497     1.007825032230

  Charge       = 0
  Multiplicity = 1
  Basis Set: 6-311+G*
    Blend: 6-311+G*
  Basis Set: (6-311+G* AUX)
    Blend: HEAVY-AUG-CC-PVTZ-JKFIT

    Orbital Energies [Eh]
    ---------------------

    Doubly Occupied:

       1A    -19.210989     2A    -14.469447     3A    -14.441007
       4A    -14.435970     5A    -10.387154     6A    -10.351772
       7A    -10.328934     8A    -10.327024     9A    -10.313512
      10A    -10.305686    11A    -10.297436    12A    -10.296449
      13A    -10.295164    14A    -10.294540    15A    -10.293823
      16A    -10.293541    17A    -10.283757    18A    -10.283699
      19A    -10.282995    20A    -10.280087    21A    -10.280042
      22A     -1.129647    23A     -1.054537    24A     -1.045820
      25A     -1.021377    26A     -0.968903    27A     -0.937634
      28A     -0.901635    29A     -0.867417    30A     -0.854985
      31A     -0.846319    32A     -0.831805    33A     -0.808497
      34A     -0.762653    35A     -0.714792    36A     -0.713547
      37A     -0.707144    38A     -0.690328    39A     -0.682131
      40A     -0.654130    41A     -0.624015    42A     -0.616584
      43A     -0.607632    44A     -0.599185    45A     -0.586932
      46A     -0.574316    47A     -0.552404    48A     -0.543858
      49A     -0.530046    50A     -0.527787    51A     -0.521384
      52A     -0.519789    53A     -0.513493    54A     -0.508505
      55A     -0.505534    56A     -0.503864    57A     -0.488279
      58A     -0.470468    59A     -0.465597    60A     -0.462332
      61A     -0.439314    62A     -0.433922    63A     -0.432273
      64A     -0.412145    65A     -0.407385    66A     -0.389642
      67A     -0.347879    68A     -0.339412    69A     -0.335533
      70A     -0.331051    71A     -0.326243    72A     -0.280540
      73A     -0.261444

  @DF-RKS Final Energy:  -896.21193839374621

   => Energetics <=

    Nuclear Repulsion Energy =           1555.9573350648606720
    One-Electron Energy =               -4305.8902919947595365
    Two-Electron Energy =                1941.4952653556010773
    DFT Exchange-Correlation Energy =     -87.7480631508521185
    Empirical Dispersion Energy =          -0.0261836685962952
    VV10 Nonlocal Energy =                  0.0000000000000000
    Total Energy =                       -896.2119383937462089

  Dipole Moment: [D]
     X:     1.2064      Y:     2.4272      Z:     0.9975     Total:     2.8882

*** Psi4 exiting successfully. Buy a developer a beer!
