                               Psi4 1.5 release

  ==> Input File <==

--------------------------------------------------------------------------
molecule {
0 1
 C    1.657526   -0.399238    0.056684
 N    0.443863   -0.797552    0.681772
 C   -0.735020   -0.119185    0.706183
 C   -1.713160   -0.534182    1.611631
 H    0.367214   -1.748731    1.090732
 C   -1.128050    0.690611   -0.491851
 C   -2.630416    0.221119    2.428293
 N   -3.024433   -1.978519    2.737021
 C   -1.978893   -1.956005    1.844448
 C   -3.408230   -0.679715    3.088100
 C   -1.566736    2.029698   -0.337227
 C   -1.055298    0.137535   -1.796451
 C   -1.915733    2.794832   -1.457728
 C   -1.403910    0.908338   -2.913161
 C   -1.835338    2.240927   -2.751549
 C    2.531089   -1.404217   -0.424604
 C    1.935881    0.958789   -0.241569
 C    3.687562   -1.051895   -1.135289
 C    3.092929    1.298563   -0.957369
 C    3.999633    0.305368   -1.408552
 H   -3.423016   -2.843784    3.071723
 O   -1.377594   -2.949126    1.375900
 H   -1.624194    2.466591    0.660945
 H   -0.725238   -0.895045   -1.926764
 H   -2.247672    3.826309   -1.326502
 H   -1.339804    0.474035   -3.912243
 H   -2.105283    2.840235   -3.623016
 H    2.283032   -2.451627   -0.235678
 H    1.248178    1.734414    0.095658
 H    4.347333   -1.849493   -1.484163
 H    3.283983    2.353389   -1.167335
 N    5.172848    0.661301   -2.128210
 H   -2.703787    1.296134    2.503133
 H   -4.215253   -0.520931    3.789585
 H    5.899148   -0.037413   -1.952036
 H    5.571227    1.506971   -1.711634
}
set optking {
  frozen_dihedral = ("
    1 2 3 4
    16 1 2 3
    2 3 6 11
    18 20 32 35
  ")
}
set {
  geom_maxiter 400
  g_convergence GAU_LOOSE
  dynamic_level 1
}
memory 8.166666666666666GB
set_num_threads(2)
psi4_io.set_default_path("/scratch/bdw2292/Psi4-1_7_Index_0_GrowFragment_0-farH_in17")
for _ in range(1):
  try:
    set opt_coordinates both
    optimize('wb97x-d/6-311G')
    break
  except OptimizationConvergenceError:
    break
  else:
    try:
      set opt_coordinates cartesian
      optimize('wb97x-d/6-311G')
      break
    except OptimizationConvergenceError:
      pass
clean()
--------------------------------------------------------------------------

    Molecular point group: c1
  Charge       = 0
  Multiplicity = 1
  Basis Set: 6-311G
    Blend: 6-311G
  Basis Set: (6-311G AUX)
    Blend: CC-PVTZ-JKFIT
  @DF-RKS Final Energy:  -895.93171680103796
    Total Energy =                       -895.9317168010379646
    Molecular point group: c1
  Basis Set: 6-311G
    Blend: 6-311G
  Basis Set: (6-311G AUX)
    Blend: CC-PVTZ-JKFIT
  Basis Set: 6-311G
    Blend: 6-311G
  Basis Set: (6-311G AUX)
    Blend: CC-PVTZ-JKFIT
  @DF-RKS Final Energy:  -895.95508372225504
    Total Energy =                       -895.9550837222550399
  Basis Set: 6-311G
    Blend: 6-311G
  Basis Set: (6-311G AUX)
    Blend: CC-PVTZ-JKFIT
  Basis Set: 6-311G
    Blend: 6-311G
  @DF-RKS Final Energy:  -895.97272992804949
    Total Energy =                       -895.9727299280494890
  @DF-RKS Final Energy:  -895.98132610195137
    Total Energy =                       -895.9813261019512538
  @DF-RKS Final Energy:  -895.98908190158352
    Total Energy =                       -895.9890819015836314
  @DF-RKS Final Energy:  -895.99129708175553
    Total Energy =                       -895.9912970817554196
  @DF-RKS Final Energy:  -895.99192213029812
    Total Energy =                       -895.9919221302981214
  @DF-RKS Final Energy:  -895.99202280429404
    Total Energy =                       -895.9920228042940380
  @DF-RKS Final Energy:  -895.99218312100550
    Total Energy =                       -895.9921831210053824
  @DF-RKS Final Energy:  -895.99220157097636
    Total Energy =                       -895.9922015709762491
  Basis Set: (6-311G AUX)
    Blend: CC-PVTZ-JKFIT
  Basis Set: 6-311G
    Blend: 6-311G
  Basis Set: (6-311G AUX)
    Blend: CC-PVTZ-JKFIT
  @DF-RKS Final Energy:  -895.99223418853137
    Total Energy =                       -895.9922341885313699
  Basis Set: 6-311G
    Blend: 6-311G
  Basis Set: (6-311G AUX)
    Blend: CC-PVTZ-JKFIT
  Charge       = 0
  Multiplicity = 1
  Basis Set: 6-311G
    Blend: 6-311G
  Basis Set: (6-311G AUX)
    Blend: CC-PVTZ-JKFIT

    Orbital Energies [Eh]
    ---------------------

    Doubly Occupied:

       1A    -19.198836     2A    -14.464547     3A    -14.461042
       4A    -14.436231     5A    -10.379565     6A    -10.363339
       7A    -10.338324     8A    -10.329568     9A    -10.316236
      10A    -10.312915    11A    -10.302912    12A    -10.301986
      13A    -10.301747    14A    -10.301336    15A    -10.300237
      16A    -10.292675    17A    -10.292529    18A    -10.288401
      19A    -10.287904    20A    -10.281960    21A    -10.275946
      22A     -1.129763    23A     -1.066954    24A     -1.050089
      25A     -1.027724    26A     -0.979241    27A     -0.951028
      28A     -0.903254    29A     -0.871525    30A     -0.862782
      31A     -0.856090    32A     -0.843558    33A     -0.808441
      34A     -0.765862    35A     -0.727701    36A     -0.720297
      37A     -0.717693    38A     -0.693942    39A     -0.677618
      40A     -0.665975    41A     -0.636616    42A     -0.623502
      43A     -0.611137    44A     -0.602166    45A     -0.591219
      46A     -0.577713    47A     -0.559023    48A     -0.549888
      49A     -0.535070    50A     -0.533623    51A     -0.524386
      52A     -0.518656    53A     -0.515065    54A     -0.511626
      55A     -0.507342    56A     -0.494789    57A     -0.484529
      58A     -0.480743    59A     -0.470869    60A     -0.464658
      61A     -0.453470    62A     -0.443820    63A     -0.438628
      64A     -0.427092    65A     -0.397621    66A     -0.395696
      67A     -0.344849    68A     -0.341758    69A     -0.333232
      70A     -0.328005    71A     -0.326052    72A     -0.277506
      73A     -0.244842

  @DF-RKS Final Energy:  -895.99224239508987

   => Energetics <=

    Nuclear Repulsion Energy =           1547.5427302518844499
    One-Electron Energy =               -4288.0427015710010892
    Two-Electron Energy =                1932.2926414710505014
    DFT Exchange-Correlation Energy =     -87.7589227225636819
    Empirical Dispersion Energy =          -0.0259898244601045
    VV10 Nonlocal Energy =                  0.0000000000000000
    Total Energy =                       -895.9922423950897610

  Dipole Moment: [D]
     X:     0.7023      Y:     2.9486      Z:    -2.3146     Total:     3.8137

    Molecular point group: c1
  Basis Set: 6-311G
    Blend: 6-311G
  Basis Set: (6-311G AUX)
    Blend: CC-PVTZ-JKFIT

  -Total Gradient:
     Atom            X                  Y                   Z
    ------   -----------------  -----------------  -----------------
       1       -0.000999970317     0.000444147429    -0.001006630764
       2       -0.000039673409    -0.002344766886    -0.002118685825
       3        0.000123501965     0.001178766063     0.001558953741
       4        0.000026621533     0.000347678544     0.000275653017
       5        0.000179073421     0.000273667374    -0.000080028985
       6        0.000342433225    -0.000007538113    -0.000036394806
       7        0.000054466629     0.000060733937     0.000160211271
       8        0.000058829125     0.000253588419     0.000413362952
       9       -0.000114659531    -0.000259933807    -0.000437083257
      10       -0.000274435941    -0.000385049465    -0.000170011938
      11       -0.000272134869     0.000086545033    -0.000150792723
      12        0.000083227659    -0.000079478530     0.000268606485
      13        0.000006308611    -0.000032384650     0.000110829527
      14       -0.000104986164     0.000090559925    -0.000038106751
      15        0.000053977890    -0.000063541713    -0.000077442812
      16        0.000697607715     0.000251654716     0.001597527097
      17       -0.000184638178    -0.000020625080    -0.000098167334
      18       -0.000845633938    -0.000112779020    -0.001926140324
      19        0.000045529275     0.000002265208    -0.000022829300
      20        0.001472054730     0.000704055729     0.003704143358
      21        0.000029546516    -0.000028893250     0.000147606790
      22        0.000179521079    -0.000011537108     0.000025965439
      23        0.000032229685     0.000003168405     0.000062008821
      24        0.000019384300    -0.000021170841    -0.000025661643
      25       -0.000027648866     0.000009777267    -0.000022143207
      26        0.000010117669    -0.000032937769    -0.000072851160
      27       -0.000032808836     0.000000969157    -0.000027525135
      28        0.000013152185    -0.000000944086     0.000010030269
      29        0.000043267263    -0.000021203107     0.000001615295
      30        0.000008427620     0.000022453573     0.000004771825
      31       -0.000005396996    -0.000010668077    -0.000016145620
      32       -0.001175935111    -0.002388345129    -0.004096174626
      33       -0.000118392483     0.000181433886    -0.000082687080
      34       -0.000010392183     0.000039306950     0.000003993484
      35        0.000536175181     0.001551195150     0.002312840314
      36       -0.000003934644     0.000226039039    -0.000052635958

  **** Optimization is complete! (in 12 steps) ****
    Final optimized geometry and variables:
    Molecular point group: c1

    Geometry (in Angstrom), charge = 0, multiplicity = 1:

    C            1.617098823127    -0.312053726614    -0.035278202495
    N            0.440874127817    -0.843341915014     0.557129230005
    C           -0.833412809330    -0.376996137369     0.473896341263
    C           -1.785632015944    -0.862690759149     1.348007174270
    H            0.568598748877    -1.560744570154     1.275657291123
    C           -1.195109486277     0.579840323579    -0.603322146739
    C           -3.221307205530    -0.629077608845     1.419608939592
    N           -2.650104638051    -2.071474834812     3.051254730761
    C           -1.461465271628    -1.817072468046     2.400718153299
    C           -3.704753506519    -1.362077897481     2.448531983072
    C           -1.894653606211     1.753836628286    -0.307960158926
    C           -0.852362552518     0.300501237948    -1.930846958350
    C           -2.244143460599     2.637527645622    -1.326236985231
    C           -1.206828717089     1.181790485399    -2.946045135569
    C           -1.901342813599     2.353301111359    -2.646306536726
    C            2.643196641707    -1.199116096912    -0.370867391381
    C            1.821695127107     1.054823029527    -0.233187904727
    C            3.830093967444    -0.740015987234    -0.923975223396
    C            3.008035843804     1.517526872466    -0.787303962149
    C            4.034824723236     0.630580254231    -1.140819942309
    H           -2.724392805422    -2.706046993280     3.822310611896
    O           -0.342975350082    -2.340698542604     2.680514665750
    H           -2.150366383966     1.974886997811     0.719459974300
    H           -0.304922131085    -0.603058611280    -2.160711013868
    H           -2.781353269435     3.545534704164    -1.088477433509
    H           -0.939884400549     0.955617003740    -3.969239162892
    H           -2.173079816576     3.039797800062    -3.436604507352
    H            2.495767463906    -2.260051129226    -0.216809104018
    H            1.060458233153     1.764697404370     0.053735876669
    H            4.600971803119    -1.446366149182    -1.203672646362
    H            3.146247880887     2.581707789372    -0.931433076349
    N            5.205156785792     1.086192985111    -1.738448429901
    H           -3.797800930257    -0.000650681923     0.764054773771
    H           -4.710109927540    -1.455996857069     2.817299841102
    H            6.054123593584     0.568247698853    -1.613334850244
    H            5.313599010414     2.069921590575    -1.899726596451

*** Psi4 exiting successfully. Buy a developer a beer!
