                               Psi4 1.5 release

  ==> Input File <==

--------------------------------------------------------------------------
molecule {
0 1
 C    1.787719   -0.138341   -0.540951
 N    0.484718    0.055850   -1.089194
 C   -0.697273    0.412770   -0.527570
 C   -0.911893    0.353888    0.840312
 H    0.420636    0.176486   -2.110185
 C   -1.881716    0.590330   -1.426811
 C   -0.707765    1.327834    1.881116
 N   -1.583102   -0.548520    2.776868
 C   -1.486822   -0.851801    1.436335
 C   -1.123898    0.747880    3.039096
 C   -2.677828    1.758444   -1.327145
 C   -2.241362   -0.409801   -2.366350
 C   -3.786087    1.934205   -2.166959
 C   -3.348073   -0.226825   -3.206556
 C   -4.124729    0.946550   -3.114911
 C    2.896710    0.131225   -1.385677
 C    2.036694   -0.449189    0.821487
 C    4.207022    0.047833   -0.893826
 C    3.352429   -0.525056    1.303342
 C    4.464986   -0.290412    0.457861
 H   -1.950366   -1.213072    3.442564
 O   -1.813447   -1.931937    0.902392
 H   -2.420319    2.524653   -0.593503
 H   -1.654035   -1.328153   -2.427842
 H   -4.386184    2.842438   -2.087434
 H   -3.606086   -0.997650   -3.934965
 H   -4.984852    1.088018   -3.771860
 H    2.710617    0.409867   -2.426350
 H    1.212831   -0.646192    1.499472
 H    5.034534    0.256290   -1.576018
 H    3.505264   -0.770588    2.356763
 N    5.793636   -0.376394    0.955649
 H   -0.296593    2.320917    1.774459
 H   -1.131434    1.136631    4.047821
 H    6.418204   -0.660744    0.196941
 H    5.852248   -1.168922    1.600506
}
set optking {
  frozen_dihedral = ("
    1 2 3 4
    16 1 2 3
    2 3 6 11
    18 20 32 35
  ")
}
set {
  geom_maxiter 400
  g_convergence GAU_LOOSE
  dynamic_level 1
}
memory 8.166666666666666GB
set_num_threads(2)
psi4_io.set_default_path("/scratch/bdw2292/Psi4-1_7_Index_0_GrowFragment_0-farH_in17")
for _ in range(1):
  try:
    set opt_coordinates both
    optimize('wb97x-d/6-311G')
    break
  except OptimizationConvergenceError:
    break
  else:
    try:
      set opt_coordinates cartesian
      optimize('wb97x-d/6-311G')
      break
    except OptimizationConvergenceError:
      pass
clean()
--------------------------------------------------------------------------

    Molecular point group: c1
  Charge       = 0
  Multiplicity = 1
  Basis Set: 6-311G
    Blend: 6-311G
  Basis Set: (6-311G AUX)
    Blend: CC-PVTZ-JKFIT
  @DF-RKS Final Energy:  -895.89844113705340
    Total Energy =                       -895.8984411370533962
    Molecular point group: c1
  Basis Set: 6-311G
    Blend: 6-311G
  Basis Set: (6-311G AUX)
    Blend: CC-PVTZ-JKFIT
  Basis Set: 6-311G
    Blend: 6-311G
  Basis Set: (6-311G AUX)
    Blend: CC-PVTZ-JKFIT
  @DF-RKS Final Energy:  -895.91887461353667
    Total Energy =                       -895.9188746135365591
  Basis Set: 6-311G
    Blend: 6-311G
  Basis Set: (6-311G AUX)
    Blend: CC-PVTZ-JKFIT
  Basis Set: 6-311G
    Blend: 6-311G
  @DF-RKS Final Energy:  -895.92821471338686
    Total Energy =                       -895.9282147133868648
  @DF-RKS Final Energy:  -895.93888941155979
    Total Energy =                       -895.9388894115596713
  @DF-RKS Final Energy:  -895.94971470274641
    Total Energy =                       -895.9497147027464052
  @DF-RKS Final Energy:  -895.95569061290018
    Total Energy =                       -895.9556906129001845
  @DF-RKS Final Energy:  -895.96079775046610
    Total Energy =                       -895.9607977504660994
  @DF-RKS Final Energy:  -895.96232747541092
    Total Energy =                       -895.9623274754109161
  @DF-RKS Final Energy:  -895.96252239412422
    Total Energy =                       -895.9625223941242211
  @DF-RKS Final Energy:  -895.96274149389467
    Total Energy =                       -895.9627414938946686
  @DF-RKS Final Energy:  -895.96279548366817
    Total Energy =                       -895.9627954836681738
  Basis Set: (6-311G AUX)
    Blend: CC-PVTZ-JKFIT
  Basis Set: 6-311G
    Blend: 6-311G
  Basis Set: (6-311G AUX)
    Blend: CC-PVTZ-JKFIT
  @DF-RKS Final Energy:  -895.96282974898884
    Total Energy =                       -895.9628297489888382
  Basis Set: 6-311G
    Blend: 6-311G
  Basis Set: (6-311G AUX)
    Blend: CC-PVTZ-JKFIT
  Charge       = 0
  Multiplicity = 1
  Basis Set: 6-311G
    Blend: 6-311G
  Basis Set: (6-311G AUX)
    Blend: CC-PVTZ-JKFIT

    Orbital Energies [Eh]
    ---------------------

    Doubly Occupied:

       1A    -19.185247     2A    -14.482079     3A    -14.452746
       4A    -14.441504     5A    -10.376310     6A    -10.362896
       7A    -10.344468     8A    -10.339496     9A    -10.314427
      10A    -10.305780    11A    -10.303085    12A    -10.296495
      13A    -10.295422    14A    -10.294365    15A    -10.293511
      16A    -10.290825    17A    -10.290241    18A    -10.289863
      19A    -10.288019    20A    -10.284692    21A    -10.272448
      22A     -1.123041    23A     -1.075795    24A     -1.043399
      25A     -1.033292    26A     -0.972160    27A     -0.952910
      28A     -0.902481    29A     -0.868694    30A     -0.862973
      31A     -0.852106    32A     -0.836947    33A     -0.814551
      34A     -0.763569    35A     -0.734488    36A     -0.720464
      37A     -0.701578    38A     -0.700956    39A     -0.675210
      40A     -0.657731    41A     -0.641938    42A     -0.627412
      43A     -0.614379    44A     -0.603637    45A     -0.591679
      46A     -0.562676    47A     -0.551853    48A     -0.542327
      49A     -0.541476    50A     -0.530895    51A     -0.523375
      52A     -0.519991    53A     -0.516415    54A     -0.510057
      55A     -0.504469    56A     -0.493583    57A     -0.488628
      58A     -0.475953    59A     -0.471279    60A     -0.459933
      61A     -0.452251    62A     -0.437262    63A     -0.428905
      64A     -0.427723    65A     -0.394764    66A     -0.391019
      67A     -0.342034    68A     -0.337904    69A     -0.331998
      70A     -0.327729    71A     -0.307807    72A     -0.278170
      73A     -0.243328

  @DF-RKS Final Energy:  -895.96283738953093

   => Energetics <=

    Nuclear Repulsion Energy =           1529.3757341774726228
    One-Electron Energy =               -4251.9079796088835792
    Two-Electron Energy =                1914.3387894734603378
    DFT Exchange-Correlation Energy =     -87.7439472533595790
    Empirical Dispersion Energy =          -0.0254341782208688
    VV10 Nonlocal Energy =                  0.0000000000000000
    Total Energy =                       -895.9628373895310460

  Dipole Moment: [D]
     X:     5.6062      Y:    -0.2766      Z:    -0.2209     Total:     5.6173

    Molecular point group: c1
  Basis Set: 6-311G
    Blend: 6-311G
  Basis Set: (6-311G AUX)
    Blend: CC-PVTZ-JKFIT

  -Total Gradient:
     Atom            X                  Y                   Z
    ------   -----------------  -----------------  -----------------
       1        0.001639794573     0.018810404503     0.002747297998
       2       -0.004921745649    -0.021640108842    -0.000827545502
       3        0.007505225765     0.023668812968     0.002540293182
       4       -0.004593104313    -0.013910125279    -0.001497852467
       5        0.000043065642    -0.000006659874    -0.000120896752
       6        0.001027008353     0.000458640563    -0.000719049928
       7        0.000059782132     0.000518153113    -0.000112282671
       8       -0.000240926272     0.000151596043    -0.000069984025
       9        0.000178686353     0.000312575310     0.000325718976
      10        0.000132643972    -0.000427858120     0.000174746581
      11       -0.000619266487    -0.000458888502     0.000779893530
      12       -0.000066761694    -0.000140227127    -0.000072175890
      13       -0.000107551150     0.000056616314     0.000002912877
      14        0.000052762934    -0.000134278087     0.000000976128
      15       -0.000085398157     0.000070451951    -0.000110874077
      16       -0.000008761501    -0.007256761110    -0.002773721930
      17        0.000105931210    -0.000049450878    -0.000035586570
      18       -0.000003459152     0.002002083751     0.001051484477
      19        0.000002287311    -0.000049100612    -0.000033186494
      20       -0.000239834189    -0.003945525346    -0.001636830601
      21        0.000052341173     0.000026436842    -0.000013863956
      22       -0.000158185740    -0.000110850448    -0.000064110249
      23        0.000014023976     0.000111421217     0.000155507807
      24        0.000008005835    -0.000145306673     0.000013427838
      25       -0.000057451150     0.000082349968     0.000025141762
      26       -0.000056806559    -0.000139554224    -0.000109249510
      27       -0.000111377030    -0.000036093163    -0.000040341098
      28       -0.000020973425     0.000016959977    -0.000076881523
      29       -0.000066054765    -0.000032560567     0.000058216899
      30        0.000040644013    -0.000001201821    -0.000071468965
      31        0.000020671112    -0.000074895806     0.000108123659
      32        0.000632875403     0.004819200804     0.000418689216
      33       -0.000100879111     0.000047316026    -0.000046273867
      34       -0.000037676861     0.000035696469     0.000098497584
      35       -0.000477786247    -0.002961114015    -0.000077863273
      36        0.000081717792     0.000111120940     0.000172007314

  **** Optimization is complete! (in 13 steps) ****
    Final optimized geometry and variables:
    Molecular point group: c1

    Geometry (in Angstrom), charge = 0, multiplicity = 1:

    C            1.914964966889    -0.276676899105    -0.283797549587
    N            0.598217621173    -0.085161944166    -0.783652200155
    C           -0.602249639845     0.240912319673    -0.191509047339
    C           -0.940223386032     0.191817222995     1.140028884916
    H            0.590044554278     0.089329580725    -1.777014153771
    C           -1.653558258926     0.460390976804    -1.231603209748
    C           -0.119628303878     0.389942896975     2.338226672911
    N           -2.245971574395     0.113346961745     3.005395761630
    C           -2.336334313416     0.032957377107     1.618974596693
    C           -0.930603711577     0.347472947168     3.416316687626
    C           -2.451267073683     1.606479846412    -1.186855261930
    C           -1.827868066470    -0.455829927652    -2.274177604861
    C           -3.396338726472     1.841301321805    -2.177676567690
    C           -2.779871866401    -0.222370883804    -3.263300450111
    C           -3.562212664579     0.928621934679    -3.219129925166
    C            2.983008909190     0.028608567052    -1.135105381312
    C            2.190805287580    -0.997270846024     0.882635689670
    C            4.292511758594    -0.260011473180    -0.780160753540
    C            3.499742813537    -1.293742989525     1.239258706831
    C            4.577371977481    -0.923595254285     0.422024800482
    H           -3.045030337098    -0.002943426480     3.597021015520
    O           -3.398180904601    -0.199164419804     1.007726183487
    H           -2.330560553690     2.302496138566    -0.368294666484
    H           -1.245459776648    -1.368254396131    -2.287975639302
    H           -4.010540020424     2.730181365314    -2.133635465893
    H           -2.919112234444    -0.944300867754    -4.056817236058
    H           -4.304261460235     1.109169164212    -3.985171738387
    H            2.791722129271     0.536673018336    -2.073318183929
    H            1.383405387076    -1.358150307235     1.498957216917
    H            5.102215219676     0.030673063772    -1.436966788058
    H            3.686026518701    -1.850393984532     2.149382004026
    N            5.889865895792    -1.170148409875     0.805324684359
    H            0.924123958844     0.639556318873     2.362196983362
    H           -0.696425847016     0.504659736276     4.454495268338
    H            6.594710398261    -1.303909961490     0.105403035117
    H            6.063975009116    -1.602439396941     1.692855795573

*** Psi4 exiting successfully. Buy a developer a beer!
