                               Psi4 1.5 release

  ==> Input File <==

--------------------------------------------------------------------------
molecule {
0 1
 C    1.700175   -0.343864    0.049123
 N    0.541943   -0.576314    0.846183
 C   -0.698000    0.010733    0.822437
 C   -1.747267   -0.635431    1.496696
 H    0.557581   -1.419371    1.451448
 C   -1.061712    0.950020   -0.288397
 C   -3.175837   -0.523915    1.311971
 N   -2.790890   -1.929039    3.028686
 C   -1.531280   -1.569600    2.611162
 C   -3.770582   -1.309424    2.249522
 C   -1.629410    2.210546    0.022847
 C   -0.924056    0.576411   -1.651920
 C   -2.016743    3.086335   -0.999373
 C   -1.311203    1.457593   -2.669887
 C   -1.857273    2.717681   -2.350740
 C    2.574680   -1.433572   -0.189811
 C    1.964692    0.898435   -0.583372
 C    3.692615   -1.277012   -1.021636
 C    3.083146    1.040858   -1.417876
 C    3.976668   -0.036039   -1.646869
 H   -2.936824   -2.566720    3.797864
 O   -0.451367   -1.989562    3.087827
 H   -1.761017    2.494197    1.068856
 H   -0.516507   -0.404099   -1.904606
 H   -2.443304    4.058418   -0.745652
 H   -1.189977    1.165293   -3.714385
 H   -2.158504    3.402515   -3.145470
 H    2.357537   -2.395565    0.280810
 H    1.307632    1.748220   -0.404615
 H    4.345138   -2.137910   -1.184625
 H    3.256837    2.008884   -1.893223
 N    5.112675    0.123113   -2.487034
 H   -3.690137    0.078273    0.576134
 H   -4.818606   -1.489725    2.442919
 H    5.853282   -0.508103   -2.170693
 H    5.520282    1.046241   -2.315428
}
set optking {
  frozen_dihedral = ("
    1 2 3 4
    16 1 2 3
    2 3 6 11
    18 20 32 35
  ")
}
set {
  geom_maxiter 400
  g_convergence GAU_LOOSE
  dynamic_level 1
}
memory 8.166666666666666GB
set_num_threads(2)
psi4_io.set_default_path("/scratch/bdw2292/Psi4-1_7_Index_0_GrowFragment_0-farH_in17")
for _ in range(1):
  try:
    set opt_coordinates both
    optimize('wb97x-d/6-311G')
    break
  except OptimizationConvergenceError:
    break
  else:
    try:
      set opt_coordinates cartesian
      optimize('wb97x-d/6-311G')
      break
    except OptimizationConvergenceError:
      pass
clean()
--------------------------------------------------------------------------

    Molecular point group: c1
  Charge       = 0
  Multiplicity = 1
  Basis Set: 6-311G
    Blend: 6-311G
  Basis Set: (6-311G AUX)
    Blend: CC-PVTZ-JKFIT
  @DF-RKS Final Energy:  -895.96416954782637
    Total Energy =                       -895.9641695478262591
    Molecular point group: c1
  Basis Set: 6-311G
    Blend: 6-311G
  Basis Set: (6-311G AUX)
    Blend: CC-PVTZ-JKFIT
  Basis Set: 6-311G
    Blend: 6-311G
  Basis Set: (6-311G AUX)
    Blend: CC-PVTZ-JKFIT
  @DF-RKS Final Energy:  -895.97775164987343
    Total Energy =                       -895.9777516498734258
  Basis Set: 6-311G
    Blend: 6-311G
  Basis Set: (6-311G AUX)
    Blend: CC-PVTZ-JKFIT
  Basis Set: 6-311G
    Blend: 6-311G
  @DF-RKS Final Energy:  -895.98414565339692
    Total Energy =                       -895.9841456533969222
  @DF-RKS Final Energy:  -895.98619267042864
    Total Energy =                       -895.9861926704286361
  @DF-RKS Final Energy:  -895.98685577678941
    Total Energy =                       -895.9868557767894117
  @DF-RKS Final Energy:  -895.98716478501194
    Total Energy =                       -895.9871647850119416
  @DF-RKS Final Energy:  -895.98723970787080
    Total Energy =                       -895.9872397078709128
  Basis Set: (6-311G AUX)
    Blend: CC-PVTZ-JKFIT
  Basis Set: 6-311G
    Blend: 6-311G
  Basis Set: (6-311G AUX)
    Blend: CC-PVTZ-JKFIT
  @DF-RKS Final Energy:  -895.98730415789748
    Total Energy =                       -895.9873041578973698
  Basis Set: 6-311G
    Blend: 6-311G
  Basis Set: (6-311G AUX)
    Blend: CC-PVTZ-JKFIT
  Charge       = 0
  Multiplicity = 1
  Basis Set: 6-311G
    Blend: 6-311G
  Basis Set: (6-311G AUX)
    Blend: CC-PVTZ-JKFIT

    Orbital Energies [Eh]
    ---------------------

    Doubly Occupied:

       1A    -19.199500     2A    -14.467270     3A    -14.461443
       4A    -14.436061     5A    -10.379570     6A    -10.365669
       7A    -10.337932     8A    -10.332359     9A    -10.317840
      10A    -10.312320    11A    -10.303860    12A    -10.303055
      13A    -10.302718    14A    -10.302022    15A    -10.301274
      16A    -10.292893    17A    -10.292530    18A    -10.288828
      19A    -10.287970    20A    -10.282367    21A    -10.275466
      22A     -1.130259    23A     -1.068352    24A     -1.050542
      25A     -1.027434    26A     -0.980755    27A     -0.951925
      28A     -0.904517    29A     -0.872099    30A     -0.863907
      31A     -0.855978    32A     -0.845040    33A     -0.808254
      34A     -0.766600    35A     -0.729688    36A     -0.722071
      37A     -0.716409    38A     -0.694623    39A     -0.677654
      40A     -0.666525    41A     -0.638085    42A     -0.623065
      43A     -0.610746    44A     -0.603075    45A     -0.591676
      46A     -0.576825    47A     -0.560180    48A     -0.551176
      49A     -0.535047    50A     -0.531387    51A     -0.525563
      52A     -0.519577    53A     -0.515236    54A     -0.511686
      55A     -0.506999    56A     -0.494419    57A     -0.486558
      58A     -0.485551    59A     -0.472073    60A     -0.461313
      61A     -0.457973    62A     -0.444035    63A     -0.439355
      64A     -0.428736    65A     -0.397789    66A     -0.394225
      67A     -0.345943    68A     -0.342763    69A     -0.333903
      70A     -0.329334    71A     -0.324734    72A     -0.278772
      73A     -0.242620

  @DF-RKS Final Energy:  -895.98730807827519

   => Energetics <=

    Nuclear Repulsion Energy =           1543.3746388381573524
    One-Electron Energy =               -4279.6113516640298258
    Two-Electron Energy =                1928.0338552454563796
    DFT Exchange-Correlation Energy =     -87.7585516535647514
    Empirical Dispersion Energy =          -0.0258988442943213
    VV10 Nonlocal Energy =                  0.0000000000000000
    Total Energy =                       -895.9873080782751913

  Dipole Moment: [D]
     X:     0.6148      Y:     2.3300      Z:    -2.8456     Total:     3.7289

    Molecular point group: c1
  Basis Set: 6-311G
    Blend: 6-311G
  Basis Set: (6-311G AUX)
    Blend: CC-PVTZ-JKFIT

  -Total Gradient:
     Atom            X                  Y                   Z
    ------   -----------------  -----------------  -----------------
       1       -0.006144838182    -0.007180315499    -0.007971294828
       2        0.001370925067     0.001427419085    -0.000112955225
       3        0.003630331810     0.010617740857     0.012139446729
       4       -0.002593925060    -0.005527505767    -0.006372383013
       5       -0.000031233673    -0.000103287680     0.000211407875
       6        0.004627024415     0.000822341331    -0.000694774660
       7        0.000171427899     0.000205520489     0.000502566644
       8        0.000162423673     0.000448300266     0.000400618205
       9       -0.000253766930    -0.000150388220    -0.000464716107
      10       -0.000102125067    -0.000456119439    -0.000585337137
      11       -0.003616400247    -0.001569954512    -0.000264814917
      12        0.000074480717     0.000056066169    -0.000097079497
      13       -0.000033389786     0.000021238180     0.000060383220
      14        0.000014429469    -0.000061526987    -0.000045217930
      15       -0.000001313478     0.000016677911    -0.000059118317
      16        0.002565588361     0.001468085880     0.003250687370
      17       -0.000099863762    -0.000034611974     0.000015457962
      18       -0.001181752377    -0.000579042760    -0.001548627124
      19        0.000046761212    -0.000003359038     0.000014956096
      20        0.002176023143     0.001539323359     0.003043766394
      21        0.000006074815     0.000112359127     0.000037031433
      22        0.000008478856     0.000036483159     0.000064646660
      23       -0.000001605330     0.000008409566     0.000011963289
      24        0.000007149077    -0.000031332511    -0.000009654770
      25        0.000004504578     0.000006662357     0.000008307289
      26       -0.000006235691    -0.000016553818    -0.000025754141
      27        0.000019836136     0.000002746077    -0.000025852748
      28       -0.000001189016     0.000000029287     0.000003853298
      29       -0.000027641743     0.000016852092    -0.000005259985
      30        0.000019928568    -0.000005904226     0.000002003378
      31        0.000003105552    -0.000000108145    -0.000011774206
      32       -0.002151671063    -0.002919793008    -0.003125771962
      33        0.000041917776     0.000063382923     0.000093503941
      34        0.000027411717    -0.000011750155    -0.000064887281
      35        0.001245896664     0.001952260339     0.001572578042
      36        0.000037090464    -0.000021561818     0.000050240672

  **** Optimization is complete! (in 9 steps) ****
    Final optimized geometry and variables:
    Molecular point group: c1

    Geometry (in Angstrom), charge = 0, multiplicity = 1:

    C            1.604757479288    -0.476987922922    -0.152526808350
    N            0.511506244062    -0.554767595403     0.746849678559
    C           -0.711759004620     0.034834150703     0.728146676286
    C           -1.697788101836    -0.467064370666     1.559795558416
    H            0.581762678233    -1.287410164027     1.461756175111
    C           -1.076519097524     1.031067150792    -0.315733559608
    C           -3.104179693107    -0.115255677979     1.685915718964
    N           -2.657565585254    -1.794326537503     3.116249301127
    C           -1.450942714764    -1.553774355199     2.497187726513
    C           -3.649125614988    -0.931007783529     2.617030005514
    C           -1.647622965074     2.253252696161     0.048461233301
    C           -0.980039781456     0.698359140326    -1.672654782318
    C           -2.071552765961     3.151775900909    -0.928833877729
    C           -1.410634669066     1.592704883143    -2.645680603338
    C           -1.950625515111     2.824993412154    -2.277023613530
    C            2.425181126448    -1.605567039096    -0.257285197240
    C            1.990350530225     0.689513532556    -0.819351798830
    C            3.551680288633    -1.598428893568    -1.066721263788
    C            3.120673576888     0.699641873258    -1.626976765061
    C            3.920989562710    -0.442436389667    -1.769895063998
    H           -2.781229272673    -2.503566593232     3.812012584799
    O           -0.371677679218    -2.181521941657     2.719007623666
    H           -1.744664792354     2.501967080415     1.096565251808
    H           -0.567967917263    -0.258380208014    -1.961459305796
    H           -2.498773459712     4.101011558121    -0.635691082014
    H           -1.330218885772     1.325704536800    -3.690446155852
    H           -2.281740731942     3.520589479108    -3.036038780075
    H            2.155990447742    -2.506007399249     0.280062485279
    H            1.424330029944     1.600001184671    -0.699290728077
    H            4.148565120224    -2.496392604873    -1.160853475120
    H            3.398689572155     1.614641177102    -2.135076768135
    N            5.024035227380    -0.447546813047    -2.617980622332
    H           -3.624812946216     0.636354370967     1.120092343864
    H           -4.659930498144    -0.989951060496     2.977647649426
    H            5.794266525750    -1.057181063620    -2.417672302519
    H            5.250518824175     0.390075059210    -3.120180367006

*** Psi4 exiting successfully. Buy a developer a beer!
