                               Psi4 1.5 release

  ==> Input File <==

--------------------------------------------------------------------------
molecule {
0 1
 C    1.643556   -0.108716   -0.004705
 N    0.708868    0.590307    0.791308
 C   -0.692159    0.474310    0.545727
 C   -1.359362   -0.650578    0.884480
 H    0.968125    0.701281    1.758322
 C   -1.365364    1.680101    0.008949
 C   -2.737040   -1.045448    0.586644
 N   -1.779039   -2.719999    1.760476
 C   -0.765592   -1.776539    1.676878
 C   -2.933184   -2.276350    1.098089
 C   -2.557166    2.151901    0.576888
 C   -0.746044    2.443228   -0.990625
 C   -3.149198    3.322374    0.109854
 C   -1.345760    3.603705   -1.465966
 C   -2.552337    4.043865   -0.921480
 C    2.864763   -0.518910    0.541172
 C    1.381730   -0.416198   -1.342162
 C    3.810666   -1.171681   -0.236040
 C    2.333119   -1.067325   -2.123383
 C    3.569563   -1.444647   -1.590168
 H   -1.671240   -3.586930    2.249850
 O    0.341922   -1.874981    2.225639
 H   -3.009001    1.605549    1.393836
 H    0.212914    2.128792   -1.377765
 H   -4.066233    3.676758    0.560847
 H   -0.865669    4.173297   -2.249798
 H   -3.012213    4.952578   -1.285443
 H    3.061057   -0.349346    1.591523
 H    0.429405   -0.153340   -1.783944
 H    4.737642   -1.501185    0.216450
 H    2.107941   -1.282456   -3.161038
 N    4.517226   -2.125333   -2.359219
 H   -3.438935   -0.477768    0.003622
 H   -3.803936   -2.905534    1.041922
 H    5.488533   -2.029197   -2.132282
 H    4.309614   -2.316632   -3.320502
}
memory 8.166666666666666GB
set_num_threads(2)
psi4_io.set_default_path("/scratch/bdw2292/Psi4-1_7_Index_0_GrowFragment_0-farH_in17")
set freeze_core True
E, wfn = energy('wb97x-d/6-311+G*',return_wfn=True)
oeprop(wfn,"WIBERG_LOWDIN_INDICES")
clean()
--------------------------------------------------------------------------

    Molecular point group: c1

    Geometry (in Angstrom), charge = 0, multiplicity = 1:

       Center              X                  Y                   Z               Mass
    ------------   -----------------  -----------------  -----------------  -----------------
         C            1.643555977855    -0.108716020822    -0.004705046317    12.000000000000
         N            0.708867977855     0.590306979178     0.791307953683    14.003074004430
         C           -0.692159022145     0.474309979178     0.545726953683    12.000000000000
         C           -1.359362022145    -0.650578020822     0.884479953683    12.000000000000
         H            0.968124977855     0.701280979178     1.758321953683     1.007825032230
         C           -1.365364022145     1.680100979178     0.008948953683    12.000000000000
         C           -2.737040022145    -1.045448020822     0.586643953683    12.000000000000
         N           -1.779039022145    -2.719999020822     1.760475953683    14.003074004430
         C           -0.765592022145    -1.776539020822     1.676877953683    12.000000000000
         C           -2.933184022145    -2.276350020822     1.098088953683    12.000000000000
         C           -2.557166022145     2.151900979178     0.576887953683    12.000000000000
         C           -0.746044022145     2.443227979178    -0.990625046317    12.000000000000
         C           -3.149198022145     3.322373979178     0.109853953683    12.000000000000
         C           -1.345760022145     3.603704979178    -1.465966046317    12.000000000000
         C           -2.552337022145     4.043864979178    -0.921480046317    12.000000000000
         C            2.864762977855    -0.518910020822     0.541171953683    12.000000000000
         C            1.381729977855    -0.416198020822    -1.342162046317    12.000000000000
         C            3.810665977855    -1.171681020822    -0.236040046317    12.000000000000
         C            2.333118977855    -1.067325020822    -2.123383046317    12.000000000000
         C            3.569562977855    -1.444647020822    -1.590168046317    12.000000000000
         H           -1.671240022145    -3.586930020822     2.249849953683     1.007825032230
         O            0.341921977855    -1.874981020822     2.225638953683    15.994914619570
         H           -3.009001022145     1.605548979178     1.393835953683     1.007825032230
         H            0.212913977855     2.128791979178    -1.377765046317     1.007825032230
         H           -4.066233022145     3.676757979178     0.560846953683     1.007825032230
         H           -0.865669022145     4.173296979178    -2.249798046317     1.007825032230
         H           -3.012213022145     4.952577979178    -1.285443046317     1.007825032230
         H            3.061056977855    -0.349346020822     1.591522953683     1.007825032230
         H            0.429404977855    -0.153340020822    -1.783944046317     1.007825032230
         H            4.737641977855    -1.501185020822     0.216449953683     1.007825032230
         H            2.107940977855    -1.282456020822    -3.161038046317     1.007825032230
         N            4.517225977855    -2.125333020822    -2.359219046317    14.003074004430
         H           -3.438935022145    -0.477768020822     0.003621953683     1.007825032230
         H           -3.803936022145    -2.905534020822     1.041921953683     1.007825032230
         H            5.488532977855    -2.029197020822    -2.132282046317     1.007825032230
         H            4.309613977855    -2.316632020822    -3.320502046317     1.007825032230

  Charge       = 0
  Multiplicity = 1
  Basis Set: 6-311+G*
    Blend: 6-311+G*
  Basis Set: (6-311+G* AUX)
    Blend: HEAVY-AUG-CC-PVTZ-JKFIT

    Orbital Energies [Eh]
    ---------------------

    Doubly Occupied:

       1A    -19.220566     2A    -14.474761     3A    -14.432240
       4A    -14.423179     5A    -10.396636     6A    -10.350190
       7A    -10.339628     8A    -10.312325     9A    -10.310669
      10A    -10.308013    11A    -10.306709    12A    -10.298623
      13A    -10.297509    14A    -10.296247    15A    -10.295348
      16A    -10.294756    17A    -10.289541    18A    -10.272361
      19A    -10.271273    20A    -10.271055    21A    -10.270125
      22A     -1.139541    23A     -1.062692    24A     -1.038604
      25A     -1.007461    26A     -0.970266    27A     -0.930323
      28A     -0.905221    29A     -0.870315    30A     -0.856132
      31A     -0.836426    32A     -0.832298    33A     -0.805484
      34A     -0.766351    35A     -0.718142    36A     -0.707317
      37A     -0.701942    38A     -0.694764    39A     -0.683084
      40A     -0.647772    41A     -0.623160    42A     -0.615848
      43A     -0.607264    44A     -0.595121    45A     -0.584144
      46A     -0.575349    47A     -0.555437    48A     -0.543260
      49A     -0.533731    50A     -0.527294    51A     -0.524205
      52A     -0.518623    53A     -0.514843    54A     -0.511939
      55A     -0.503548    56A     -0.494701    57A     -0.487615
      58A     -0.469483    59A     -0.463908    60A     -0.458412
      61A     -0.441617    62A     -0.434966    63A     -0.421436
      64A     -0.418618    65A     -0.406740    66A     -0.386037
      67A     -0.351297    68A     -0.339779    69A     -0.337611
      70A     -0.328497    71A     -0.317255    72A     -0.285508
      73A     -0.241576

  @DF-RKS Final Energy:  -896.19602939161655

   => Energetics <=

    Nuclear Repulsion Energy =           1547.9881345500532461
    One-Electron Energy =               -4290.0827332251974440
    Two-Electron Energy =                1933.6711097613128914
    DFT Exchange-Correlation Energy =     -87.7461443390690476
    Empirical Dispersion Energy =          -0.0263961387164006
    VV10 Nonlocal Energy =                  0.0000000000000000
    Total Energy =                       -896.1960293916165483

  Dipole Moment: [D]
     X:    -2.5812      Y:    -0.1291      Z:    -1.2345     Total:     2.8641

*** Psi4 exiting successfully. Buy a developer a beer!
