                               Psi4 1.5 release

  ==> Input File <==

--------------------------------------------------------------------------
molecule {
0 1
 C    1.914965   -0.276677   -0.283798
 N    0.598218   -0.085162   -0.783652
 C   -0.602250    0.240912   -0.191509
 C   -0.940223    0.191817    1.140029
 H    0.590045    0.089330   -1.777014
 C   -1.653558    0.460391   -1.231603
 C   -0.119628    0.389943    2.338227
 N   -2.245972    0.113347    3.005396
 C   -2.336334    0.032957    1.618975
 C   -0.930604    0.347473    3.416317
 C   -2.451267    1.606480   -1.186855
 C   -1.827868   -0.455830   -2.274178
 C   -3.396339    1.841301   -2.177677
 C   -2.779872   -0.222371   -3.263300
 C   -3.562213    0.928622   -3.219130
 C    2.983009    0.028609   -1.135105
 C    2.190805   -0.997271    0.882636
 C    4.292512   -0.260011   -0.780161
 C    3.499743   -1.293743    1.239259
 C    4.577372   -0.923595    0.422025
 H   -3.045030   -0.002943    3.597021
 O   -3.398181   -0.199164    1.007726
 H   -2.330561    2.302496   -0.368295
 H   -1.245460   -1.368254   -2.287976
 H   -4.010540    2.730181   -2.133635
 H   -2.919112   -0.944301   -4.056817
 H   -4.304261    1.109169   -3.985172
 H    2.791722    0.536673   -2.073318
 H    1.383405   -1.358150    1.498957
 H    5.102215    0.030673   -1.436967
 H    3.686027   -1.850394    2.149382
 N    5.889866   -1.170148    0.805325
 H    0.924124    0.639556    2.362197
 H   -0.696426    0.504660    4.454495
 H    6.594710   -1.303910    0.105403
 H    6.063975   -1.602439    1.692856
}
memory 8.166666666666666GB
set_num_threads(2)
psi4_io.set_default_path("/scratch/bdw2292/Psi4-1_7_Index_0_GrowFragment_0-farH_in17")
set freeze_core True
E, wfn = energy('wb97x-d/6-311+G*',return_wfn=True)
oeprop(wfn,"WIBERG_LOWDIN_INDICES")
clean()
--------------------------------------------------------------------------

    Molecular point group: c1

    Geometry (in Angstrom), charge = 0, multiplicity = 1:

       Center              X                  Y                   Z               Mass
    ------------   -----------------  -----------------  -----------------  -----------------
         C            1.914964989502    -0.276677041588    -0.283798100033    12.000000000000
         N            0.598217989502    -0.085162041588    -0.783652100033    14.003074004430
         C           -0.602250010498     0.240911958412    -0.191509100033    12.000000000000
         C           -0.940223010498     0.191816958412     1.140028899967    12.000000000000
         H            0.590044989502     0.089329958412    -1.777014100033     1.007825032230
         C           -1.653558010498     0.460390958412    -1.231603100033    12.000000000000
         C           -0.119628010498     0.389942958412     2.338226899967    12.000000000000
         N           -2.245972010498     0.113346958412     3.005395899967    14.003074004430
         C           -2.336334010498     0.032956958412     1.618974899967    12.000000000000
         C           -0.930604010498     0.347472958412     3.416316899967    12.000000000000
         C           -2.451267010498     1.606479958412    -1.186855100033    12.000000000000
         C           -1.827868010498    -0.455830041588    -2.274178100033    12.000000000000
         C           -3.396339010498     1.841300958412    -2.177677100033    12.000000000000
         C           -2.779872010498    -0.222371041588    -3.263300100033    12.000000000000
         C           -3.562213010498     0.928621958412    -3.219130100033    12.000000000000
         C            2.983008989502     0.028608958412    -1.135105100033    12.000000000000
         C            2.190804989502    -0.997271041588     0.882635899967    12.000000000000
         C            4.292511989502    -0.260011041588    -0.780161100033    12.000000000000
         C            3.499742989502    -1.293743041588     1.239258899967    12.000000000000
         C            4.577371989502    -0.923595041588     0.422024899967    12.000000000000
         H           -3.045030010498    -0.002943041588     3.597020899967     1.007825032230
         O           -3.398181010498    -0.199164041588     1.007725899967    15.994914619570
         H           -2.330561010498     2.302495958412    -0.368295100033     1.007825032230
         H           -1.245460010498    -1.368254041588    -2.287976100033     1.007825032230
         H           -4.010540010498     2.730180958412    -2.133635100033     1.007825032230
         H           -2.919112010498    -0.944301041588    -4.056817100033     1.007825032230
         H           -4.304261010498     1.109168958412    -3.985172100033     1.007825032230
         H            2.791721989502     0.536672958412    -2.073318100033     1.007825032230
         H            1.383404989502    -1.358150041588     1.498956899967     1.007825032230
         H            5.102214989502     0.030672958412    -1.436967100033     1.007825032230
         H            3.686026989502    -1.850394041588     2.149381899967     1.007825032230
         N            5.889865989502    -1.170148041588     0.805324899967    14.003074004430
         H            0.924123989502     0.639555958412     2.362196899967     1.007825032230
         H           -0.696426010498     0.504659958412     4.454494899967     1.007825032230
         H            6.594709989502    -1.303910041588     0.105402899967     1.007825032230
         H            6.063974989502    -1.602439041588     1.692855899967     1.007825032230

  Charge       = 0
  Multiplicity = 1
  Basis Set: 6-311+G*
    Blend: 6-311+G*
  Basis Set: (6-311+G* AUX)
    Blend: HEAVY-AUG-CC-PVTZ-JKFIT

    Orbital Energies [Eh]
    ---------------------

    Doubly Occupied:

       1A    -19.186864     2A    -14.481514     3A    -14.452797
       4A    -14.446568     5A    -10.369966     6A    -10.359980
       7A    -10.340743     8A    -10.335717     9A    -10.313184
      10A    -10.302487    11A    -10.301600    12A    -10.295437
      13A    -10.294129    14A    -10.293149    15A    -10.291972
      16A    -10.289345    17A    -10.288695    18A    -10.288469
      19A    -10.286486    20A    -10.281171    21A    -10.271270
      22A     -1.110041    23A     -1.072741    24A     -1.036435
      25A     -1.032889    26A     -0.967994    27A     -0.948922
      28A     -0.899517    29A     -0.865752    30A     -0.860323
      31A     -0.849153    32A     -0.833526    33A     -0.810817
      34A     -0.760307    35A     -0.732076    36A     -0.717608
      37A     -0.699111    38A     -0.698711    39A     -0.673990
      40A     -0.654185    41A     -0.639977    42A     -0.625414
      43A     -0.614001    44A     -0.602632    45A     -0.591226
      46A     -0.562286    47A     -0.549374    48A     -0.541128
      49A     -0.537997    50A     -0.528418    51A     -0.520958
      52A     -0.517655    53A     -0.513997    54A     -0.508209
      55A     -0.503071    56A     -0.493166    57A     -0.488272
      58A     -0.479137    59A     -0.471560    60A     -0.461817
      61A     -0.452563    62A     -0.437616    63A     -0.428613
      64A     -0.428123    65A     -0.397112    66A     -0.393534
      67A     -0.342793    68A     -0.340058    69A     -0.333782
      70A     -0.328669    71A     -0.312926    72A     -0.281817
      73A     -0.248198

  @DF-RKS Final Energy:  -896.19970376295339

   => Energetics <=

    Nuclear Repulsion Energy =           1529.3756884153456213
    One-Electron Energy =               -4252.5695200037680479
    Two-Electron Energy =                1914.7686211124664624
    DFT Exchange-Correlation Energy =     -87.7490591090696910
    Empirical Dispersion Energy =          -0.0254341779276453
    VV10 Nonlocal Energy =                  0.0000000000000000
    Total Energy =                       -896.1997037629535043

  Dipole Moment: [D]
     X:     5.4649      Y:    -0.2958      Z:    -0.1443     Total:     5.4748

*** Psi4 exiting successfully. Buy a developer a beer!
