                               Psi4 1.5 release

  ==> Input File <==

--------------------------------------------------------------------------
molecule {
0 1
 C    1.717503   -0.420271   -0.390747
 N    0.350931   -0.638527   -0.724410
 C   -0.689782    0.108281   -0.295924
 C   -1.103483   -0.075552    1.016465
 H    0.163822   -1.015782   -1.664645
 C   -1.700784    0.583714   -1.291008
 C   -1.170597    0.835635    2.129902
 N   -1.966537   -1.176632    2.768650
 C   -1.651260   -1.365835    1.441000
 C   -1.683008    0.132405    3.175292
 C   -2.082678    1.947433   -1.297146
 C   -2.311430   -0.306768   -2.211809
 C   -3.032855    2.413790   -2.215479
 C   -3.259078    0.165701   -3.129981
 C   -3.624639    1.527549   -3.138943
 C    2.710481   -0.788478   -1.333599
 C    2.108961    0.282814    0.777354
 C    4.061968   -0.509719   -1.084279
 C    3.464350    0.555788    1.015580
 C    4.470472    0.156367    0.099474
 H   -2.358200   -1.918610    3.330442
 O   -1.814698   -2.422476    0.792430
 H   -1.627728    2.635634   -0.582464
 H   -2.047234   -1.366498   -2.195479
 H   -3.313296    3.468583   -2.215506
 H   -3.714895   -0.527135   -3.839369
 H   -4.363678    1.893119   -3.854211
 H    2.403894   -1.288743   -2.255650
 H    1.354944    0.605893    1.491485
 H    4.802542   -0.812781   -1.827966
 H    3.734127    1.091997    1.928293
 N    5.841391    0.436240    0.351613
 H   -0.870673    1.873615    2.144206
 H   -1.881947    0.443174    4.191524
 H    6.418054   -0.282627   -0.092886
 H    6.029426    0.287208    1.346667
}
set optking {
  frozen_dihedral = ("
    1 2 3 4
    16 1 2 3
    2 3 6 11
    18 20 32 35
  ")
}
set {
  geom_maxiter 400
  g_convergence GAU_LOOSE
  dynamic_level 1
}
memory 8.166666666666666GB
set_num_threads(2)
psi4_io.set_default_path("/scratch/bdw2292/Psi4-1_7_Index_0_GrowFragment_0-farH_in17")
for _ in range(1):
  try:
    set opt_coordinates both
    optimize('wb97x-d/6-311G')
    break
  except OptimizationConvergenceError:
    break
  else:
    try:
      set opt_coordinates cartesian
      optimize('wb97x-d/6-311G')
      break
    except OptimizationConvergenceError:
      pass
clean()
--------------------------------------------------------------------------

    Molecular point group: c1
  Charge       = 0
  Multiplicity = 1
  Basis Set: 6-311G
    Blend: 6-311G
  Basis Set: (6-311G AUX)
    Blend: CC-PVTZ-JKFIT
  @DF-RKS Final Energy:  -895.88019279269986
    Total Energy =                       -895.8801927926999724
    Molecular point group: c1
  Basis Set: 6-311G
    Blend: 6-311G
  Basis Set: (6-311G AUX)
    Blend: CC-PVTZ-JKFIT
  Basis Set: 6-311G
    Blend: 6-311G
  Basis Set: (6-311G AUX)
    Blend: CC-PVTZ-JKFIT
  @DF-RKS Final Energy:  -895.90381195081579
    Total Energy =                       -895.9038119508157934
  Basis Set: 6-311G
    Blend: 6-311G
  Basis Set: (6-311G AUX)
    Blend: CC-PVTZ-JKFIT
  Basis Set: 6-311G
    Blend: 6-311G
  @DF-RKS Final Energy:  -895.91873340157406
    Total Energy =                       -895.9187334015740589
  @DF-RKS Final Energy:  -895.88585067074268
    Total Energy =                       -895.8858506707425704
  @DF-RKS Final Energy:  -895.93571331385942
    Total Energy =                       -895.9357133138593099
  @DF-RKS Final Energy:  -895.94699928616376
    Total Energy =                       -895.9469992861636456
  @DF-RKS Final Energy:  -895.93571332669342
    Total Energy =                       -895.9357133266935307
  @DF-RKS Final Energy:  -895.94174105054708
    Total Energy =                       -895.9417410505471935
  @DF-RKS Final Energy:  -895.94542450044480
    Total Energy =                       -895.9454245004448012
  @DF-RKS Final Energy:  -895.94865642851880
    Total Energy =                       -895.9486564285188024
  @DF-RKS Final Energy:  -895.95138847187604
    Total Energy =                       -895.9513884718760437
  @DF-RKS Final Energy:  -895.95365858919183
    Total Energy =                       -895.9536585891918321
  @DF-RKS Final Energy:  -895.95540659185849
    Total Energy =                       -895.9554065918584911
  @DF-RKS Final Energy:  -895.95655582473432
    Total Energy =                       -895.9565558247343233
  @DF-RKS Final Energy:  -895.95714449130492
    Total Energy =                       -895.9571444913049163
  @DF-RKS Final Energy:  -895.95711673073254
    Total Energy =                       -895.9571167307325368
  @DF-RKS Final Energy:  -895.95722427847284
    Total Energy =                       -895.9572242784728360
  @DF-RKS Final Energy:  -895.95717258611182
    Total Energy =                       -895.9571725861118239
  @DF-RKS Final Energy:  -895.95727846893010
    Total Energy =                       -895.9572784689302125
  Basis Set: (6-311G AUX)
    Blend: CC-PVTZ-JKFIT
  Basis Set: 6-311G
    Blend: 6-311G
  Basis Set: (6-311G AUX)
    Blend: CC-PVTZ-JKFIT
  @DF-RKS Final Energy:  -895.95729790901225
    Total Energy =                       -895.9572979090123681
  Basis Set: 6-311G
    Blend: 6-311G
  Basis Set: (6-311G AUX)
    Blend: CC-PVTZ-JKFIT
  Charge       = 0
  Multiplicity = 1
  Basis Set: 6-311G
    Blend: 6-311G
  Basis Set: (6-311G AUX)
    Blend: CC-PVTZ-JKFIT

    Orbital Energies [Eh]
    ---------------------

    Doubly Occupied:

       1A    -19.206740     2A    -14.464670     3A    -14.457886
       4A    -14.422237     5A    -10.390355     6A    -10.358029
       7A    -10.328056     8A    -10.321617     9A    -10.321119
      10A    -10.320264    11A    -10.307831    12A    -10.304992
      13A    -10.304714    14A    -10.303964    15A    -10.302852
      16A    -10.301329    17A    -10.282138    18A    -10.282012
      19A    -10.276211    20A    -10.275553    21A    -10.274175
      22A     -1.141560    23A     -1.060132    24A     -1.057951
      25A     -1.013082    26A     -0.981889    27A     -0.939092
      28A     -0.907948    29A     -0.874369    30A     -0.866355
      31A     -0.844380    32A     -0.834569    33A     -0.813109
      34A     -0.768032    35A     -0.724373    36A     -0.720236
      37A     -0.706914    38A     -0.694825    39A     -0.685505
      40A     -0.650382    41A     -0.634443    42A     -0.618354
      43A     -0.602058    44A     -0.599336    45A     -0.589920
      46A     -0.576203    47A     -0.560072    48A     -0.553969
      49A     -0.532272    50A     -0.529259    51A     -0.526973
      52A     -0.518674    53A     -0.515969    54A     -0.510145
      55A     -0.500281    56A     -0.496790    57A     -0.485174
      58A     -0.475357    59A     -0.468411    60A     -0.465126
      61A     -0.448413    62A     -0.443923    63A     -0.431086
      64A     -0.418488    65A     -0.405180    66A     -0.385920
      67A     -0.345723    68A     -0.339345    69A     -0.335974
      70A     -0.326252    71A     -0.318076    72A     -0.274273
      73A     -0.242603

  @DF-RKS Final Energy:  -895.95730463142036

   => Energetics <=

    Nuclear Repulsion Energy =           1538.0078104489807629
    One-Electron Energy =               -4269.1710514963433525
    Two-Electron Energy =                1922.9715103726443886
    DFT Exchange-Correlation Energy =     -87.7401704041656387
    Empirical Dispersion Energy =          -0.0254035525366657
    VV10 Nonlocal Energy =                  0.0000000000000000
    Total Energy =                       -895.9573046314204703

  Dipole Moment: [D]
     X:    -1.3870      Y:     2.0143      Z:    -0.7142     Total:     2.5478

    Molecular point group: c1
  Basis Set: 6-311G
    Blend: 6-311G
  Basis Set: (6-311G AUX)
    Blend: CC-PVTZ-JKFIT

  -Total Gradient:
     Atom            X                  Y                   Z
    ------   -----------------  -----------------  -----------------
       1        0.001195588203     0.001950307092    -0.004859361149
       2       -0.004746963002    -0.012258785926     0.008937475172
       3        0.006844445458     0.013629200732    -0.000448316786
       4       -0.003530171699    -0.005026796902    -0.002068091809
       5        0.000020540345     0.000023500213     0.000023102770
       6        0.002866578350     0.000420637323    -0.001734454766
       7       -0.000108986696    -0.000176632193     0.000025747123
       8       -0.000072393620     0.000016509054    -0.000269150693
       9        0.000468317513    -0.000441426291     0.000027965219
      10        0.000089874941     0.000195881951     0.000134463810
      11       -0.002273570588    -0.000774325188     0.000944354282
      12       -0.000046307841     0.000083898539     0.000090310674
      13       -0.000033647796    -0.000043581126    -0.000065042894
      14       -0.000019465265    -0.000012818925     0.000010914054
      15        0.000018908002     0.000050809734     0.000071337376
      16       -0.000332079373     0.001937427281    -0.000893397180
      17       -0.000039690234    -0.000104060496     0.000043806346
      18       -0.000162746017     0.001235206258    -0.000533081759
      19        0.000051621768     0.000041748312    -0.000021675655
      20        0.000078816308    -0.002455570322     0.001381921725
      21       -0.000043641671     0.000062230756    -0.000160085411
      22       -0.000630448730     0.000615310801     0.000005822891
      23       -0.000053050348    -0.000030350859    -0.000089411462
      24       -0.000046527815     0.000077588359     0.000010178352
      25       -0.000001594013    -0.000030547914    -0.000016054093
      26        0.000032376542     0.000083877020     0.000123035873
      27        0.000010383429    -0.000002166264     0.000063000489
      28       -0.000014313415     0.000050111731     0.000011578765
      29        0.000017313399     0.000020026478    -0.000036491109
      30       -0.000055796258     0.000045543666     0.000000693032
      31       -0.000017760685     0.000032390371    -0.000021609763
      32        0.000111888699     0.002531920372    -0.002307278444
      33        0.000080683971    -0.000149729131     0.000149380114
      34        0.000045387987    -0.000017383791    -0.000020492938
      35       -0.000115238657    -0.001206794113     0.001554870792
      36        0.000011679288    -0.000119316184    -0.000041997174

  **** Optimization is complete! (in 13 steps) ****
    Final optimized geometry and variables:
    Molecular point group: c1

    Geometry (in Angstrom), charge = 0, multiplicity = 1:

    C            1.605805877427    -0.543022007423    -0.197792502592
    N            0.281227265834    -0.869385517860    -0.612543582571
    C           -0.883361406899    -0.195472598178    -0.226445838840
    C           -1.449455118560    -0.338653459612     1.003080806341
    H            0.276777428813    -1.072045227964    -1.601730396362
    C           -1.587992361114     0.531892875229    -1.322460162171
    C           -2.702803211469     0.236600192185     1.497090760080
    N           -1.930275297099    -1.176652017543     3.069523756553
    C           -0.966846446212    -1.257836033019     2.070237233578
    C           -2.949537632830    -0.285842905991     2.715017656817
    C           -1.988190994521     1.862388529787    -1.156350339033
    C           -1.873806696377    -0.112345816039    -2.533302742677
    C           -2.643663235903     2.537097658227    -2.183422988862
    C           -2.531115749394     0.562303769493    -3.556975929024
    C           -2.916094916307     1.890526588521    -3.386358768332
    C            2.654808709197    -0.815435268373    -1.080476105883
    C            1.901693530821     0.074020657390     1.016636126370
    C            3.966779975259    -0.502553287858    -0.753005277298
    C            3.216120784719     0.381139798480     1.348354760144
    C            4.273924281081     0.087199098715     0.480096936504
    H           -1.871653662844    -1.708421426205     3.915565079538
    O            0.038125301863    -1.984476619234     2.119373145655
    H           -1.761794501734     2.372932454503    -0.230704302425
    H           -1.613770345837    -1.155165857453    -2.668732487793
    H           -2.936407070345     3.568826475594    -2.044519689809
    H           -2.750716052283     0.048248728718    -4.482491313260
    H           -3.425252979192     2.414744381278    -4.183088811261
    H            2.445698592958    -1.275218262527    -2.039625029271
    H            1.116212916465     0.307822383751     1.715755106067
    H            4.758876885891    -0.704900765681    -1.462634989026
    H            3.422563380931     0.844968672771     2.304969565725
    N            5.590958050758     0.418359561204     0.802559920746
    H           -3.335232152431     0.925955777089     0.969717510423
    H           -3.780513496832    -0.113394709886     3.375861773441
    H            6.335672921514    -0.129837117144     0.415329644762
    H            5.774906455315     0.825124116020     1.700244653107

*** Psi4 exiting successfully. Buy a developer a beer!
