                               Psi4 1.5 release

  ==> Input File <==

--------------------------------------------------------------------------
molecule {
0 1
 C    1.762345    0.091492   -0.130114
 N    0.760200    0.930426    0.428258
 C   -0.575544    0.772363    0.368036
 C   -1.113017   -0.490266    0.575432
 H    1.011921    1.804252    0.912986
 C   -1.409539    1.913906   -0.112747
 C   -1.816139   -1.388377   -0.304031
 N   -1.648495   -2.327311    1.741065
 C   -1.039249   -1.102609    1.901723
 C   -2.109850   -2.495356    0.429709
 C   -2.546128    2.319472    0.629052
 C   -1.076029    2.611689   -1.301545
 C   -3.330634    3.394812    0.190913
 C   -1.863646    3.686984   -1.734039
 C   -2.994849    4.085240   -0.992055
 C    3.020154    0.017254    0.514895
 C    1.478628   -0.801296   -1.193577
 C    4.000869   -0.870166    0.048112
 C    2.465631   -1.686695   -1.650407
 C    3.751522   -1.730037   -1.052962
 H   -1.729830   -2.982039    2.505510
 O   -0.549607   -0.659078    2.962515
 H   -2.806460    1.789363    1.547480
 H   -0.202589    2.305201   -1.880313
 H   -4.203389    3.698721    0.771468
 H   -1.597994    4.218144   -2.649650
 H   -3.606734    4.923346   -1.330870
 H    3.205985    0.657189    1.380662
 H    0.491731   -0.786460   -1.655759
 H    4.967039   -0.893901    0.557242
 H    2.222796   -2.353219   -2.480973
 N    4.748643   -2.623757   -1.529851
 H   -2.063488   -1.225454   -1.343162
 H   -2.618926   -3.404963    0.143014
 H    5.672507   -2.220361   -1.355115
 H    4.706549   -2.650008   -2.552024
}
set optking {
  frozen_dihedral = ("
    1 2 3 4
    16 1 2 3
    2 3 6 11
    18 20 32 35
  ")
}
set {
  geom_maxiter 400
  g_convergence GAU_LOOSE
  dynamic_level 1
}
memory 8.166666666666666GB
set_num_threads(2)
psi4_io.set_default_path("/scratch/bdw2292/Psi4-1_7_Index_0_GrowFragment_0-farH_in17")
for _ in range(1):
  try:
    set opt_coordinates both
    optimize('wb97x-d/6-311G')
    break
  except OptimizationConvergenceError:
    break
  else:
    try:
      set opt_coordinates cartesian
      optimize('wb97x-d/6-311G')
      break
    except OptimizationConvergenceError:
      pass
clean()
--------------------------------------------------------------------------

    Molecular point group: c1
  Charge       = 0
  Multiplicity = 1
  Basis Set: 6-311G
    Blend: 6-311G
  Basis Set: (6-311G AUX)
    Blend: CC-PVTZ-JKFIT
  @DF-RKS Final Energy:  -895.90989818595608
    Total Energy =                       -895.9098981859559672
    Molecular point group: c1
  Basis Set: 6-311G
    Blend: 6-311G
  Basis Set: (6-311G AUX)
    Blend: CC-PVTZ-JKFIT
  Basis Set: 6-311G
    Blend: 6-311G
  Basis Set: (6-311G AUX)
    Blend: CC-PVTZ-JKFIT
  @DF-RKS Final Energy:  -895.83236585374777
    Total Energy =                       -895.8323658537477741
  Basis Set: 6-311G
    Blend: 6-311G
  Basis Set: (6-311G AUX)
    Blend: CC-PVTZ-JKFIT
  Basis Set: 6-311G
    Blend: 6-311G
  @DF-RKS Final Energy:  -895.92391417478223
    Total Energy =                       -895.9239141747821122
  @DF-RKS Final Energy:  -895.93086378542432
    Total Energy =                       -895.9308637854243216
  @DF-RKS Final Energy:  -895.95388601313516
    Total Energy =                       -895.9538860131350475
  @DF-RKS Final Energy:  -895.96184840093463
    Total Energy =                       -895.9618484009345138
  @DF-RKS Final Energy:  -895.96746889645556
    Total Energy =                       -895.9674688964554434
  @DF-RKS Final Energy:  -895.97017624992554
    Total Energy =                       -895.9701762499254301
  @DF-RKS Final Energy:  -895.97232267374500
    Total Energy =                       -895.9723226737451114
  @DF-RKS Final Energy:  -895.97267983552877
    Total Energy =                       -895.9726798355288793
  @DF-RKS Final Energy:  -895.97276385221198
    Total Energy =                       -895.9727638522119832
  @DF-RKS Final Energy:  -895.97289289452920
    Total Energy =                       -895.9728928945291955
  @DF-RKS Final Energy:  -895.97290760689475
    Total Energy =                       -895.9729076068948643
  Basis Set: (6-311G AUX)
    Blend: CC-PVTZ-JKFIT
  Basis Set: 6-311G
    Blend: 6-311G
  Basis Set: (6-311G AUX)
    Blend: CC-PVTZ-JKFIT
  @DF-RKS Final Energy:  -895.97291926774619
    Total Energy =                       -895.9729192677463061
  Basis Set: 6-311G
    Blend: 6-311G
  Basis Set: (6-311G AUX)
    Blend: CC-PVTZ-JKFIT
  Charge       = 0
  Multiplicity = 1
  Basis Set: 6-311G
    Blend: 6-311G
  Basis Set: (6-311G AUX)
    Blend: CC-PVTZ-JKFIT

    Orbital Energies [Eh]
    ---------------------

    Doubly Occupied:

       1A    -19.189950     2A    -14.463722     3A    -14.452853
       4A    -14.426319     5A    -10.375824     6A    -10.354883
       7A    -10.327152     8A    -10.317848     9A    -10.315461
      10A    -10.314277    11A    -10.305429    12A    -10.304244
      13A    -10.303372    14A    -10.302992    15A    -10.302342
      16A    -10.284939    17A    -10.281502    18A    -10.280456
      19A    -10.277928    20A    -10.276438    21A    -10.272805
      22A     -1.124893    23A     -1.062065    24A     -1.044459
      25A     -1.017246    26A     -0.980243    27A     -0.939919
      28A     -0.901378    29A     -0.870053    30A     -0.863871
      31A     -0.845778    32A     -0.830617    33A     -0.809855
      34A     -0.762313    35A     -0.721653    36A     -0.718546
      37A     -0.705035    38A     -0.698216    39A     -0.678101
      40A     -0.648272    41A     -0.634532    42A     -0.622026
      43A     -0.603368    44A     -0.596873    45A     -0.587881
      46A     -0.577119    47A     -0.560659    48A     -0.548006
      49A     -0.529041    50A     -0.527710    51A     -0.524630
      52A     -0.513807    53A     -0.510724    54A     -0.505138
      55A     -0.504128    56A     -0.485508    57A     -0.476992
      58A     -0.471897    59A     -0.467085    60A     -0.461215
      61A     -0.443662    62A     -0.439988    63A     -0.433493
      64A     -0.415577    65A     -0.394863    66A     -0.383644
      67A     -0.347126    68A     -0.343862    69A     -0.327735
      70A     -0.322940    71A     -0.312262    72A     -0.266796
      73A     -0.241596

  @DF-RKS Final Energy:  -895.97292200471747

   => Energetics <=

    Nuclear Repulsion Energy =           1549.3069256444268831
    One-Electron Energy =               -4292.2544736242707586
    Two-Electron Energy =                1934.7489012049193207
    DFT Exchange-Correlation Energy =     -87.7482308703089018
    Empirical Dispersion Energy =          -0.0260443594840038
    VV10 Nonlocal Energy =                  0.0000000000000000
    Total Energy =                       -895.9729220047174749

  Dipole Moment: [D]
     X:     0.8409      Y:     1.5118      Z:    -2.8067     Total:     3.2970

    Molecular point group: c1
  Basis Set: 6-311G
    Blend: 6-311G
  Basis Set: (6-311G AUX)
    Blend: CC-PVTZ-JKFIT

  -Total Gradient:
     Atom            X                  Y                   Z
    ------   -----------------  -----------------  -----------------
       1        0.001302346314     0.001258107632    -0.003066333053
       2       -0.003977058080    -0.001641943322     0.007466178633
       3        0.004391865739    -0.000966480344    -0.007246834130
       4       -0.001661285973     0.001177042910     0.002879507379
       5        0.000015608381     0.000013154694     0.000026385481
       6       -0.000422022118    -0.000500733824    -0.000719572323
       7       -0.000070492361    -0.000057656709     0.000046463634
       8        0.000228950878     0.000103293850     0.000004003834
       9       -0.000286196548     0.000040228829     0.000060599359
      10       -0.000035707586     0.000080889418    -0.000047707255
      11        0.000215808380     0.000399649556     0.000571558073
      12       -0.000003570794    -0.000009411272     0.000057676491
      13        0.000024938838     0.000012346008    -0.000021517302
      14        0.000021827162    -0.000008561050    -0.000006210351
      15       -0.000030847970    -0.000001946926     0.000014984923
      16        0.000264389048     0.000238840507    -0.000091837435
      17        0.000108002834    -0.000019417113    -0.000015257671
      18       -0.001250155788    -0.001322928190     0.000765453067
      19        0.000008605574     0.000004966561    -0.000020499622
      20        0.002410409903     0.002415225990    -0.001993642059
      21        0.000040506380     0.000052995978    -0.000015255862
      22        0.000056673421    -0.000048556099    -0.000077418414
      23        0.000016786798     0.000005651278    -0.000003199510
      24        0.000013470378     0.000007790681     0.000010136506
      25        0.000009945985     0.000007787217    -0.000001543562
      26        0.000001577451     0.000001671009     0.000009999033
      27        0.000006094584     0.000008169788     0.000009748745
      28       -0.000009987174     0.000001673353    -0.000010482781
      29       -0.000001007662     0.000014213800    -0.000006818407
      30        0.000013891313     0.000001458602    -0.000000103542
      31        0.000009916453     0.000002734551    -0.000009977670
      32       -0.002350054136    -0.002318204788     0.003524416642
      33        0.000023495637    -0.000022584221     0.000016623913
      34        0.000075418845     0.000030094468    -0.000015397086
      35        0.001212864095     0.001221851242    -0.002236951670
      36        0.000052093924     0.000031517880    -0.000089010224

  **** Optimization is complete! (in 15 steps) ****
    Final optimized geometry and variables:
    Molecular point group: c1

    Geometry (in Angstrom), charge = 0, multiplicity = 1:

    C            1.543298710765    -0.205456615759     0.652414512134
    N            0.507265229877     0.772094797856     0.617558595882
    C           -0.699833290134     0.662449345660    -0.031355234110
    C           -1.474129792560    -0.466082528437    -0.010419069966
    H            0.791309856866     1.709058325402     0.851198089917
    C           -1.149042899740     1.902656770543    -0.716557019303
    C           -2.629395580638    -0.771828826906    -0.852495697116
    N           -2.350147996525    -2.474562225019     0.588324889681
    C           -1.319715478176    -1.601829715800     0.923251854093
    C           -3.113412140268    -1.973857876454    -0.474381185564
    C           -2.448044610128     2.393314466820    -0.538601394329
    C           -0.253788003587     2.617962439360    -1.522253443491
    C           -2.847122699305     3.569090797076    -1.166761331431
    C           -0.657046367690     3.790168857441    -2.155683002481
    C           -1.954613703395     4.267477650659    -1.979032166422
    C            2.382284299413    -0.278620017708     1.761717366936
    C            1.764462799324    -1.062496169455    -0.422883055739
    C            3.434074873617    -1.182224291071     1.794374200171
    C            2.812867918978    -1.972697835224    -0.393045728991
    C            3.672536953500    -2.041940968882     0.712151903137
    H           -2.503951032338    -3.332661496416     1.080395637188
    O           -0.522797473156    -1.780987376880     1.864302903093
    H           -3.131208842737     1.851837804486     0.100873064886
    H            0.750717871141     2.239508102215    -1.663207013499
    H           -3.850031409060     3.944807755362    -1.016913985260
    H            0.037167961254     4.327877628243    -2.786939405714
    H           -2.267667586527     5.179997573529    -2.467817101640
    H            2.178284591818     0.345094894774     2.621409166104
    H            1.110910905778    -1.024369968871    -1.284169277307
    H            4.056185896632    -1.252230739407     2.677380636149
    H            2.971732729411    -2.631881505563    -1.237577110797
    N            4.700834442386    -2.978243295889     0.765560950657
    H           -2.996175148999    -0.165131849375    -1.661350685281
    H           -3.935425279617    -2.539624902284    -0.875595589100
    H            5.520096593334    -2.780899014733     1.307576152784
    H            4.821666006194    -3.611016150165    -0.002116244396

*** Psi4 exiting successfully. Buy a developer a beer!
