                               Psi4 1.5 release

  ==> Input File <==

--------------------------------------------------------------------------
molecule {
0 1
 C    1.710195    0.081961    0.038343
 N    0.696453    0.709041    0.815304
 C   -0.621465    0.624902    0.565854
 C   -1.235776   -0.581602    0.869064
 H    0.858092    0.804453    1.836474
 C   -1.321038    1.735617   -0.157777
 C   -2.018550   -1.497727    0.082076
 N   -1.849706   -2.281040    2.195206
 C   -1.134273   -1.106326    2.228322
 C   -2.371786   -2.514430    0.915112
 C   -2.531257    2.239683    0.384197
 C   -0.783497    2.361806   -1.314203
 C   -3.205830    3.299860   -0.235192
 C   -1.462944    3.422031   -1.930168
 C   -2.679044    3.895174   -1.398489
 C    2.911493   -0.312747    0.678861
 C    1.474881   -0.341282   -1.295495
 C    3.896482   -1.012165   -0.033459
 C    2.470329   -1.033885   -2.000349
 C    3.707479   -1.369036   -1.393384
 H   -1.953243   -2.866229    3.011394
 O   -0.525191   -0.622241    3.209858
 H   -2.940627    1.791062    1.291863
 H    0.166086    2.026927   -1.729371
 H   -4.143322    3.665561    0.187270
 H   -1.044361    3.884323   -2.826037
 H   -3.206519    4.720239   -1.880862
 H    3.054645   -0.061832    1.732735
 H    0.511642   -0.137583   -1.763764
 H    4.818983   -1.285098    0.484016
 H    2.270485   -1.325536   -3.033874
 N    4.710831   -2.068178   -2.118061
 H   -2.283967   -1.402128   -0.960411
 H   -2.959692   -3.400798    0.721314
 H    5.630358   -1.816940   -1.746273
 H    4.748040   -1.697337   -3.071221
}
set optking {
  frozen_dihedral = ("
    1 2 3 4
    16 1 2 3
    2 3 6 11
    18 20 32 35
  ")
}
set {
  geom_maxiter 400
  g_convergence GAU_LOOSE
  dynamic_level 1
}
memory 8.166666666666666GB
set_num_threads(2)
psi4_io.set_default_path("/scratch/bdw2292/Psi4-1_7_Index_0_GrowFragment_0-farH_in17")
for _ in range(1):
  try:
    set opt_coordinates both
    optimize('wb97x-d/6-311G')
    break
  except OptimizationConvergenceError:
    break
  else:
    try:
      set opt_coordinates cartesian
      optimize('wb97x-d/6-311G')
      break
    except OptimizationConvergenceError:
      pass
clean()
--------------------------------------------------------------------------

    Molecular point group: c1
  Charge       = 0
  Multiplicity = 1
  Basis Set: 6-311G
    Blend: 6-311G
  Basis Set: (6-311G AUX)
    Blend: CC-PVTZ-JKFIT
  @DF-RKS Final Energy:  -895.89554929381586
    Total Energy =                       -895.8955492938158613
    Molecular point group: c1
  Basis Set: 6-311G
    Blend: 6-311G
  Basis Set: (6-311G AUX)
    Blend: CC-PVTZ-JKFIT
  Basis Set: 6-311G
    Blend: 6-311G
  Basis Set: (6-311G AUX)
    Blend: CC-PVTZ-JKFIT
  @DF-RKS Final Energy:  -895.92437997430545
    Total Energy =                       -895.9243799743054524
  Basis Set: 6-311G
    Blend: 6-311G
  Basis Set: (6-311G AUX)
    Blend: CC-PVTZ-JKFIT
  Basis Set: 6-311G
    Blend: 6-311G
  @DF-RKS Final Energy:  -895.92819116564192
    Total Energy =                       -895.9281911656419197
  @DF-RKS Final Energy:  -895.94963267640628
    Total Energy =                       -895.9496326764062815
  @DF-RKS Final Energy:  -895.95445619322584
    Total Energy =                       -895.9544561932259512
  @DF-RKS Final Energy:  -895.95815841702324
    Total Energy =                       -895.9581584170233555
  @DF-RKS Final Energy:  -895.95853035435448
    Total Energy =                       -895.9585303543544796
  @DF-RKS Final Energy:  -895.95861564863139
    Total Energy =                       -895.9586156486312802
  @DF-RKS Final Energy:  -895.95880887797557
    Total Energy =                       -895.9588088779755708
  Basis Set: (6-311G AUX)
    Blend: CC-PVTZ-JKFIT
  Basis Set: 6-311G
    Blend: 6-311G
  Basis Set: (6-311G AUX)
    Blend: CC-PVTZ-JKFIT
  @DF-RKS Final Energy:  -895.95886416156816
    Total Energy =                       -895.9588641615682718
  Basis Set: 6-311G
    Blend: 6-311G
  Basis Set: (6-311G AUX)
    Blend: CC-PVTZ-JKFIT
  Charge       = 0
  Multiplicity = 1
  Basis Set: 6-311G
    Blend: 6-311G
  Basis Set: (6-311G AUX)
    Blend: CC-PVTZ-JKFIT

    Orbital Energies [Eh]
    ---------------------

    Doubly Occupied:

       1A    -19.223388     2A    -14.476595     3A    -14.431240
       4A    -14.417393     5A    -10.405788     6A    -10.354236
       7A    -10.341908     8A    -10.315843     9A    -10.314131
      10A    -10.313389    11A    -10.309572    12A    -10.299800
      13A    -10.298541    14A    -10.297530    15A    -10.296286
      16A    -10.295659    17A    -10.292316    18A    -10.273269
      19A    -10.272168    20A    -10.272034    21A    -10.270891
      22A     -1.156627    23A     -1.071358    24A     -1.041734
      25A     -1.007471    26A     -0.974133    27A     -0.934268
      28A     -0.908753    29A     -0.873552    30A     -0.858650
      31A     -0.839345    32A     -0.836404    33A     -0.808867
      34A     -0.770148    35A     -0.720165    36A     -0.710335
      37A     -0.704392    38A     -0.696523    39A     -0.685114
      40A     -0.650718    41A     -0.625611    42A     -0.617916
      43A     -0.608278    44A     -0.596259    45A     -0.583987
      46A     -0.577424    47A     -0.555886    48A     -0.546626
      49A     -0.536844    50A     -0.528999    51A     -0.526801
      52A     -0.520473    53A     -0.515961    54A     -0.512831
      55A     -0.503498    56A     -0.496781    57A     -0.488061
      58A     -0.470162    59A     -0.464383    60A     -0.458538
      61A     -0.441708    62A     -0.434110    63A     -0.420875
      64A     -0.418023    65A     -0.404989    66A     -0.386324
      67A     -0.347450    68A     -0.339055    69A     -0.336019
      70A     -0.323533    71A     -0.316549    72A     -0.283434
      73A     -0.236783

  @DF-RKS Final Energy:  -895.95887829278172

   => Energetics <=

    Nuclear Repulsion Energy =           1547.9881916761903540
    One-Electron Energy =               -4289.3744166068499908
    Two-Electron Energy =                1933.1933978600698083
    DFT Exchange-Correlation Energy =     -87.7396550822823542
    Empirical Dispersion Energy =          -0.0263961399097953
    VV10 Nonlocal Energy =                  0.0000000000000000
    Total Energy =                       -895.9588782927817192

  Dipole Moment: [D]
     X:    -2.4772      Y:    -0.1543      Z:    -1.2865     Total:     2.7956

    Molecular point group: c1
  Basis Set: 6-311G
    Blend: 6-311G
  Basis Set: (6-311G AUX)
    Blend: CC-PVTZ-JKFIT

  -Total Gradient:
     Atom            X                  Y                   Z
    ------   -----------------  -----------------  -----------------
       1        0.000909368460     0.003611444394    -0.002042234155
       2       -0.001671159018    -0.000239940626     0.006380029899
       3        0.002908762237    -0.002862759019    -0.007807266343
       4       -0.000423398819     0.001143474052     0.002110577740
       5        0.000057129719     0.000044981444     0.000023965671
       6       -0.003670827933    -0.003375727394    -0.002506892943
       7       -0.000083279028     0.000180485661     0.000383742125
       8       -0.000231392866    -0.000071187192     0.000350697347
       9        0.000309163926     0.000379548094    -0.000104933304
      10        0.000309261421    -0.000241630089    -0.000491592242
      11        0.002259798425     0.002682264083     0.002924698668
      12       -0.000206627903     0.000197100693     0.000010749570
      13       -0.000036786442    -0.000105614743     0.000034120933
      14        0.000097741248     0.000023155665    -0.000064698954
      15       -0.000035060268     0.000000101946     0.000008177437
      16       -0.000672065584    -0.001519265854     0.000605327359
      17        0.000036733372    -0.000104835729     0.000086891007
      18       -0.000469278057    -0.001085976764     0.000360182574
      19        0.000056417798     0.000038523126    -0.000058853323
      20        0.000969386482     0.002076563358    -0.001052766277
      21        0.000052415168     0.000057998260     0.000068745827
      22       -0.000041240293    -0.000173227344     0.000086067695
      23       -0.000011753627    -0.000053572933     0.000002268389
      24        0.000041619077    -0.000104867630    -0.000025949977
      25       -0.000021328061    -0.000028987133     0.000028781635
      26       -0.000017760809    -0.000046004028     0.000031784540
      27       -0.000011370611     0.000001085680     0.000040576787
      28        0.000044766219     0.000006886807    -0.000039055995
      29       -0.000018932768     0.000068717713    -0.000008183036
      30        0.000010338446     0.000015116864    -0.000023681191
      31       -0.000007894295     0.000031407257     0.000049757799
      32       -0.000632212942    -0.002512239885     0.001456274275
      33       -0.000052767583     0.000085412143     0.000105055886
      34        0.000013418305     0.000083626941    -0.000104660210
      35        0.000088848335     0.001430487112    -0.001134619359
      36        0.000130905823     0.000138011228     0.000319528173

  **** Optimization is complete! (in 11 steps) ****
    Final optimized geometry and variables:
    Molecular point group: c1

    Geometry (in Angstrom), charge = 0, multiplicity = 1:

    C            1.643555775346    -0.108716080665    -0.004705073747
    N            0.708868488758     0.590307037794     0.791307835900
    C           -0.692159281170     0.474309753260     0.545726826332
    C           -1.359361924781    -0.650577877027     0.884479845884
    H            0.968125329699     0.701280994792     1.758321588005
    C           -1.365364135536     1.680100803310     0.008948522814
    C           -2.737039875213    -1.045447797364     0.586643567637
    N           -1.779038911168    -2.719998829512     1.760476014898
    C           -0.765592491870    -1.776538676721     1.676877531409
    C           -2.933184032015    -2.276350190876     1.098088957393
    C           -2.557166012410     2.151900625646     0.576888227857
    C           -0.746043783843     2.443227606584    -0.990625145408
    C           -3.149197991719     3.322373616401     0.109854452053
    C           -1.345760075697     3.603705098363    -1.465965720844
    C           -2.552336722924     4.043864832167    -0.921480140462
    C            2.864762656603    -0.518910192212     0.541171942049
    C            1.381730390403    -0.416198479999    -1.342161749927
    C            3.810666114627    -1.171680830423    -0.236040065497
    C            2.333119320385    -1.067324507229    -2.123382979129
    C            3.569562523025    -1.444646575615    -1.590168020273
    H           -1.671240176114    -3.586930240294     2.249850462390
    O            0.341921927073    -1.874980798769     2.225638719328
    H           -3.009000938763     1.605548754260     1.393836131919
    H            0.212913844008     2.128792145081    -1.377764604809
    H           -4.066233366614     3.676758135641     0.560846991462
    H           -0.865668831872     4.173296599683    -2.249798368371
    H           -3.012212647719     4.952578160058    -1.285442512507
    H            3.061056965088    -0.349346344904     1.591523131674
    H            0.429405480585    -0.153340341207    -1.783943903471
    H            4.737641879763    -1.501184872451     0.216449510857
    H            2.107940566565    -1.282455748821    -3.161037989496
    N            4.517225567027    -2.125333062650    -2.359218650351
    H           -3.438935210756    -0.477767960933     0.003622180415
    H           -3.803936489098    -2.905534009559     1.041922302044
    H            5.488533473882    -2.029196732063    -2.132282070908
    H            4.309613690684    -2.316632094317    -3.320501748389

*** Psi4 exiting successfully. Buy a developer a beer!
