                               Psi4 1.5 release

  ==> Input File <==

--------------------------------------------------------------------------
molecule {
0 1
 C    1.747313   -0.223646    0.099160
 N    0.642082   -0.221440    1.000807
 C   -0.641448    0.259834    0.917057
 C   -1.638105   -0.605869    1.382482
 H    0.702937   -0.924324    1.761925
 C   -1.066874    1.240958   -0.132786
 C   -2.900872   -0.994493    0.801627
 N   -2.696514   -1.987238    2.815097
 C   -1.527085   -1.276377    2.681587
 C   -3.512780   -1.821780    1.691654
 C   -1.775649    2.402713    0.262090
 C   -0.957296    0.949901   -1.520328
 C   -2.277442    3.292312   -0.696766
 C   -1.456763    1.844542   -2.475453
 C   -2.111560    3.025193   -2.070883
 C    2.660099   -1.307670    0.171437
 C    1.973537    0.792071   -0.864074
 C    3.739933   -1.389100   -0.719572
 C    3.050747    0.694690   -1.757485
 C    3.958166   -0.393080   -1.704984
 H   -2.889936   -2.546697    3.633083
 O   -0.572401   -1.261083    3.489436
 H   -1.922359    2.602875    1.325506
 H   -0.487890    0.017827   -1.840839
 H   -2.798741    4.196124   -0.376452
 H   -1.339056    1.621576   -3.537196
 H   -2.495726    3.723619   -2.816600
 H    2.499089   -2.083921    0.923886
 H    1.330600    1.668880   -0.889154
 H    4.413792   -2.245642   -0.644178
 H    3.183805    1.486407   -2.498468
 N    5.046971   -0.482559   -2.614871
 H   -3.301452   -0.681189   -0.151912
 H   -4.470943   -2.318844    1.634438
 H    5.819480   -0.979096   -2.163617
 H    5.436726    0.453027   -2.756779
}
set optking {
  frozen_dihedral = ("
    1 2 3 4
    16 1 2 3
    2 3 6 11
    18 20 32 35
  ")
}
set {
  geom_maxiter 400
  g_convergence GAU_LOOSE
  dynamic_level 1
}
memory 8.166666666666666GB
set_num_threads(2)
psi4_io.set_default_path("/scratch/bdw2292/Psi4-1_7_Index_0_GrowFragment_0-farH_in17")
for _ in range(1):
  try:
    set opt_coordinates both
    optimize('wb97x-d/6-311G')
    break
  except OptimizationConvergenceError:
    break
  else:
    try:
      set opt_coordinates cartesian
      optimize('wb97x-d/6-311G')
      break
    except OptimizationConvergenceError:
      pass
clean()
--------------------------------------------------------------------------

    Molecular point group: c1
  Charge       = 0
  Multiplicity = 1
  Basis Set: 6-311G
    Blend: 6-311G
  Basis Set: (6-311G AUX)
    Blend: CC-PVTZ-JKFIT
  @DF-RKS Final Energy:  -895.92886650460764
    Total Energy =                       -895.9288665046076403
    Molecular point group: c1
  Basis Set: 6-311G
    Blend: 6-311G
  Basis Set: (6-311G AUX)
    Blend: CC-PVTZ-JKFIT
  Basis Set: 6-311G
    Blend: 6-311G
  Basis Set: (6-311G AUX)
    Blend: CC-PVTZ-JKFIT
  @DF-RKS Final Energy:  -895.89335990523341
    Total Energy =                       -895.8933599052334102
  Basis Set: 6-311G
    Blend: 6-311G
  Basis Set: (6-311G AUX)
    Blend: CC-PVTZ-JKFIT
  Basis Set: 6-311G
    Blend: 6-311G
  @DF-RKS Final Energy:  -895.94971768481196
    Total Energy =                       -895.9497176848119580
  @DF-RKS Final Energy:  -895.96253047399830
    Total Energy =                       -895.9625304739982994
  @DF-RKS Final Energy:  -895.96811829935200
    Total Energy =                       -895.9681182993518860
  @DF-RKS Final Energy:  -895.97151956368089
    Total Energy =                       -895.9715195636808858
  @DF-RKS Final Energy:  -895.97202283890090
    Total Energy =                       -895.9720228389008980
  @DF-RKS Final Energy:  -895.97268077578758
    Total Energy =                       -895.9726807757875804
  @DF-RKS Final Energy:  -895.97274102663175
    Total Energy =                       -895.9727410266318657
  @DF-RKS Final Energy:  -895.97290587704879
    Total Energy =                       -895.9729058770487882
  Basis Set: (6-311G AUX)
    Blend: CC-PVTZ-JKFIT
  Basis Set: 6-311G
    Blend: 6-311G
  Basis Set: (6-311G AUX)
    Blend: CC-PVTZ-JKFIT
  @DF-RKS Final Energy:  -895.97290638635343
    Total Energy =                       -895.9729063863534293
  Basis Set: 6-311G
    Blend: 6-311G
  Basis Set: (6-311G AUX)
    Blend: CC-PVTZ-JKFIT
  Charge       = 0
  Multiplicity = 1
  Basis Set: 6-311G
    Blend: 6-311G
  Basis Set: (6-311G AUX)
    Blend: CC-PVTZ-JKFIT

    Orbital Energies [Eh]
    ---------------------

    Doubly Occupied:

       1A    -19.205162     2A    -14.465311     3A    -14.463385
       4A    -14.433902     5A    -10.385401     6A    -10.366940
       7A    -10.335134     8A    -10.332482     9A    -10.317922
      10A    -10.317160    11A    -10.303211    12A    -10.302982
      13A    -10.302321    14A    -10.301514    15A    -10.301323
      16A    -10.289763    17A    -10.289550    18A    -10.288512
      19A    -10.286847    20A    -10.285667    21A    -10.278475
      22A     -1.135897    23A     -1.065125    24A     -1.054979
      25A     -1.025110    26A     -0.980947    27A     -0.950104
      28A     -0.906231    29A     -0.872805    30A     -0.863867
      31A     -0.853604    32A     -0.844607    33A     -0.809800
      34A     -0.767573    35A     -0.728721    36A     -0.720926
      37A     -0.714324    38A     -0.695476    39A     -0.680101
      40A     -0.664142    41A     -0.638178    42A     -0.620242
      43A     -0.608924    44A     -0.602050    45A     -0.594674
      46A     -0.575652    47A     -0.559059    48A     -0.552055
      49A     -0.534160    50A     -0.527578    51A     -0.526491
      52A     -0.521728    53A     -0.513817    54A     -0.511075
      55A     -0.508319    56A     -0.497223    57A     -0.488041
      58A     -0.487653    59A     -0.472677    60A     -0.461685
      61A     -0.454505    62A     -0.441824    63A     -0.438400
      64A     -0.427022    65A     -0.402498    66A     -0.390143
      67A     -0.343774    68A     -0.341980    69A     -0.336676
      70A     -0.330244    71A     -0.326524    72A     -0.280119
      73A     -0.243190

  @DF-RKS Final Energy:  -895.97294669217354

   => Energetics <=

    Nuclear Repulsion Energy =           1539.4873218019099568
    One-Electron Energy =               -4271.7931879341740569
    Two-Electron Energy =                1924.1109785779731283
    DFT Exchange-Correlation Energy =     -87.7522327882259106
    Empirical Dispersion Energy =          -0.0258263496568666
    VV10 Nonlocal Energy =                  0.0000000000000000
    Total Energy =                       -895.9729466921735366

  Dipole Moment: [D]
     X:     0.6327      Y:     2.7658      Z:    -1.4699     Total:     3.1954

    Molecular point group: c1
  Basis Set: 6-311G
    Blend: 6-311G
  Basis Set: (6-311G AUX)
    Blend: CC-PVTZ-JKFIT

  -Total Gradient:
     Atom            X                  Y                   Z
    ------   -----------------  -----------------  -----------------
       1       -0.012278824021    -0.008500265448    -0.016434978897
       2        0.006567068576     0.008314988617    -0.001875208783
       3        0.001098054131     0.000097394900     0.030531723352
       4       -0.001906808946    -0.000086671064    -0.015880675676
       5       -0.000025619973     0.000086495880     0.000054081157
       6        0.008805738693     0.000291953155     0.000740324681
       7       -0.000169400747    -0.000140585940     0.000102450907
       8       -0.000042733709    -0.000214843619    -0.000004144836
       9        0.000221110410    -0.000095683442    -0.000003002508
      10        0.000054770087     0.000118358870     0.000049481071
      11       -0.006718778980    -0.000682433360    -0.003126018386
      12        0.000048672774     0.000150353754     0.000030174044
      13        0.000018079106    -0.000066020748     0.000067292539
      14       -0.000012563199    -0.000038476074     0.000047913005
      15       -0.000024927388     0.000031251611    -0.000056783593
      16        0.004532262856     0.000675883830     0.005866637969
      17        0.000033354493    -0.000025003965    -0.000035378547
      18       -0.001089222953     0.000056894422    -0.001524311849
      19        0.000032061478    -0.000060221289     0.000011841486
      20        0.002043217974     0.000458320132     0.003052485229
      21        0.000068563755     0.000008107194    -0.000001425093
      22       -0.000172400130     0.000102487708     0.000083274631
      23       -0.000011309864    -0.000010557872     0.000022279898
      24       -0.000011501399    -0.000034922489    -0.000006551072
      25       -0.000001483173     0.000018812740    -0.000005423144
      26       -0.000012653112    -0.000014218832    -0.000021030557
      27        0.000017336634     0.000000050352     0.000007275004
      28       -0.000003578060     0.000019052958     0.000008354044
      29       -0.000006223016    -0.000025628578     0.000028460234
      30        0.000002568938    -0.000006398495     0.000011291214
      31        0.000006218221     0.000000428516    -0.000009171053
      32       -0.002516347019    -0.001898514843    -0.003497418724
      33       -0.000001617994     0.000037661156     0.000026035574
      34       -0.000050144448     0.000111758117     0.000004363629
      35        0.001467017152     0.001322889259     0.001917707848
      36        0.000055110289     0.000062552639     0.000041711212

  **** Optimization is complete! (in 12 steps) ****
    Final optimized geometry and variables:
    Molecular point group: c1

    Geometry (in Angstrom), charge = 0, multiplicity = 1:

    C            1.563244170860    -0.685866362727    -0.208287739355
    N            0.440540526590    -0.753576521195     0.660619740231
    C           -0.698017324484    -0.005776009464     0.791106446190
    C           -1.900411322510    -0.671559457595     0.947426195307
    H            0.255376599176    -1.721530894911     0.939620215376
    C           -0.758768701857     1.446996191463     0.450847555248
    C           -3.263993683764    -0.161297501190     1.003081186548
    N           -3.338415142813    -2.405004011128     1.176486091239
    C           -1.993271735507    -2.124732483101     1.085738038013
    C           -4.094948852734    -1.220327325625     1.123881406348
    C           -1.307804722751     2.345127933028     1.372137303733
    C           -0.524380809566     1.885340501751    -0.858543452171
    C           -1.537749263302     3.673009997373     1.020196362164
    C           -0.759073433909     3.210200080369    -1.211670845170
    C           -1.257691430285     4.110700160573    -0.271451373770
    C            2.176233409657    -1.907023504589    -0.521695816274
    C            2.212572881032     0.491174219919    -0.592026421770
    C            3.325983684580    -1.955609021854    -1.293716455809
    C            3.371138408545     0.444212623488    -1.359755025073
    C            3.945794353291    -0.776873272200    -1.733796785580
    H           -3.694837938843    -3.335528243760     1.274669867651
    O           -1.062893111183    -2.981447250542     1.125974891685
    H           -1.540838652055     2.000562764233     2.370654346760
    H           -0.177280540075     1.185110196944    -1.604793674618
    H           -1.945946821605     4.358458647080     1.750257005944
    H           -0.570478738035     3.533671019309    -2.226200652712
    H           -1.442007477212     5.139453211518    -0.549151495808
    H            1.714035123072    -2.829041314783    -0.192055373677
    H            1.843624954385     1.450627090228    -0.269231183518
    H            3.748501568653    -2.915363069118    -1.561855812526
    H            3.851462182246     1.371732210325    -1.646136009060
    N            5.074540890420    -0.827405721958    -2.546391704876
    H           -3.559403796621     0.868705972619     0.915606273367
    H           -5.168728570798    -1.253216926937     1.162786689055
    H            5.703122668799    -1.604179404915    -2.464992624127
    H            5.482789680289     0.033071202257    -2.859697963780

*** Psi4 exiting successfully. Buy a developer a beer!
