                               Psi4 1.5 release

  ==> Input File <==

--------------------------------------------------------------------------
molecule {
0 1
 C    1.605806   -0.543022   -0.197793
 N    0.281227   -0.869386   -0.612544
 C   -0.883361   -0.195473   -0.226446
 C   -1.449455   -0.338653    1.003081
 H    0.276777   -1.072045   -1.601730
 C   -1.587992    0.531893   -1.322460
 C   -2.702803    0.236600    1.497091
 N   -1.930275   -1.176652    3.069524
 C   -0.966846   -1.257836    2.070237
 C   -2.949538   -0.285843    2.715018
 C   -1.988191    1.862389   -1.156350
 C   -1.873807   -0.112346   -2.533303
 C   -2.643663    2.537098   -2.183423
 C   -2.531116    0.562304   -3.556976
 C   -2.916095    1.890527   -3.386359
 C    2.654809   -0.815435   -1.080476
 C    1.901694    0.074021    1.016636
 C    3.966780   -0.502553   -0.753005
 C    3.216121    0.381140    1.348355
 C    4.273924    0.087199    0.480097
 H   -1.871654   -1.708421    3.915565
 O    0.038125   -1.984477    2.119373
 H   -1.761795    2.372932   -0.230704
 H   -1.613770   -1.155166   -2.668732
 H   -2.936407    3.568826   -2.044520
 H   -2.750716    0.048249   -4.482491
 H   -3.425253    2.414744   -4.183089
 H    2.445699   -1.275218   -2.039625
 H    1.116213    0.307822    1.715755
 H    4.758877   -0.704901   -1.462635
 H    3.422563    0.844969    2.304970
 N    5.590958    0.418360    0.802560
 H   -3.335232    0.925956    0.969718
 H   -3.780513   -0.113395    3.375862
 H    6.335673   -0.129837    0.415330
 H    5.774906    0.825124    1.700245
}
memory 8.166666666666666GB
set_num_threads(2)
psi4_io.set_default_path("/scratch/bdw2292/Psi4-1_7_Index_0_GrowFragment_0-farH_in17")
set freeze_core True
E, wfn = energy('wb97x-d/6-311+G*',return_wfn=True)
oeprop(wfn,"WIBERG_LOWDIN_INDICES")
clean()
--------------------------------------------------------------------------

    Molecular point group: c1

    Geometry (in Angstrom), charge = 0, multiplicity = 1:

       Center              X                  Y                   Z               Mass
    ------------   -----------------  -----------------  -----------------  -----------------
         C            1.605805949810    -0.543022070086    -0.197793012808    12.000000000000
         N            0.281226949810    -0.869386070086    -0.612544012808    14.003074004430
         C           -0.883361050190    -0.195473070086    -0.226446012808    12.000000000000
         C           -1.449455050190    -0.338653070086     1.003080987192    12.000000000000
         H            0.276776949810    -1.072045070086    -1.601730012808     1.007825032230
         C           -1.587992050190     0.531892929914    -1.322460012808    12.000000000000
         C           -2.702803050190     0.236599929914     1.497090987192    12.000000000000
         N           -1.930275050190    -1.176652070086     3.069523987192    14.003074004430
         C           -0.966846050190    -1.257836070086     2.070236987192    12.000000000000
         C           -2.949538050190    -0.285843070086     2.715017987192    12.000000000000
         C           -1.988191050190     1.862388929914    -1.156350012808    12.000000000000
         C           -1.873807050190    -0.112346070086    -2.533303012808    12.000000000000
         C           -2.643663050190     2.537097929914    -2.183423012808    12.000000000000
         C           -2.531116050190     0.562303929914    -3.556976012808    12.000000000000
         C           -2.916095050190     1.890526929914    -3.386359012808    12.000000000000
         C            2.654808949810    -0.815435070086    -1.080476012808    12.000000000000
         C            1.901693949810     0.074020929914     1.016635987192    12.000000000000
         C            3.966779949810    -0.502553070086    -0.753005012808    12.000000000000
         C            3.216120949810     0.381139929914     1.348354987192    12.000000000000
         C            4.273923949810     0.087198929914     0.480096987192    12.000000000000
         H           -1.871654050190    -1.708421070086     3.915564987192     1.007825032230
         O            0.038124949810    -1.984477070086     2.119372987192    15.994914619570
         H           -1.761795050190     2.372931929914    -0.230704012808     1.007825032230
         H           -1.613770050190    -1.155166070086    -2.668732012808     1.007825032230
         H           -2.936407050190     3.568825929914    -2.044520012808     1.007825032230
         H           -2.750716050190     0.048248929914    -4.482491012808     1.007825032230
         H           -3.425253050190     2.414743929914    -4.183089012808     1.007825032230
         H            2.445698949810    -1.275218070086    -2.039625012808     1.007825032230
         H            1.116212949810     0.307821929914     1.715754987192     1.007825032230
         H            4.758876949810    -0.704901070086    -1.462635012808     1.007825032230
         H            3.422562949810     0.844968929914     2.304969987192     1.007825032230
         N            5.590957949810     0.418359929914     0.802559987192    14.003074004430
         H           -3.335232050190     0.925955929914     0.969717987192     1.007825032230
         H           -3.780513050190    -0.113395070086     3.375861987192     1.007825032230
         H            6.335672949810    -0.129837070086     0.415329987192     1.007825032230
         H            5.774905949810     0.825123929914     1.700244987192     1.007825032230

  Charge       = 0
  Multiplicity = 1
  Basis Set: 6-311+G*
    Blend: 6-311+G*
  Basis Set: (6-311+G* AUX)
    Blend: HEAVY-AUG-CC-PVTZ-JKFIT

    Orbital Energies [Eh]
    ---------------------

    Doubly Occupied:

       1A    -19.206642     2A    -14.464626     3A    -14.456916
       4A    -14.427274     5A    -10.383544     6A    -10.355349
       7A    -10.327056     8A    -10.317526     9A    -10.317456
      10A    -10.316541    11A    -10.305780    12A    -10.302913
      13A    -10.302713    14A    -10.301918    15A    -10.300889
      16A    -10.297815    17A    -10.280977    18A    -10.280365
      19A    -10.274835    20A    -10.274047    21A    -10.272788
      22A     -1.127263    23A     -1.055123    24A     -1.051549
      25A     -1.012321    26A     -0.977096    27A     -0.935014
      28A     -0.904861    29A     -0.870986    30A     -0.862948
      31A     -0.841389    32A     -0.830825    33A     -0.809361
      34A     -0.764829    35A     -0.721634    36A     -0.717249
      37A     -0.703882    38A     -0.692665    39A     -0.684069
      40A     -0.646945    41A     -0.631762    42A     -0.615675
      43A     -0.602043    44A     -0.598455    45A     -0.588838
      46A     -0.576142    47A     -0.557640    48A     -0.550548
      49A     -0.529968    50A     -0.527207    51A     -0.524201
      52A     -0.516577    53A     -0.514032    54A     -0.508950
      55A     -0.498852    56A     -0.496186    57A     -0.487749
      58A     -0.474744    59A     -0.468305    60A     -0.464739
      61A     -0.448120    62A     -0.443664    63A     -0.432396
      64A     -0.419001    65A     -0.407055    66A     -0.387467
      67A     -0.345316    68A     -0.343248    69A     -0.337466
      70A     -0.331095    71A     -0.319440    72A     -0.277849
      73A     -0.247027

  @DF-RKS Final Energy:  -896.19632158565378

   => Energetics <=

    Nuclear Repulsion Energy =           1538.0077665459864420
    One-Electron Energy =               -4269.8752236979107693
    Two-Electron Energy =                1923.4430235921806798
    DFT Exchange-Correlation Energy =     -87.7464844733841431
    Empirical Dispersion Energy =          -0.0254035525261936
    VV10 Nonlocal Energy =                  0.0000000000000000
    Total Energy =                       -896.1963215856537772

  Dipole Moment: [D]
     X:    -1.5599      Y:     1.9288      Z:    -0.6924     Total:     2.5754

*** Psi4 exiting successfully. Buy a developer a beer!
