                               Psi4 1.5 release

  ==> Input File <==

--------------------------------------------------------------------------
molecule {
0 1
 C    1.401790   -0.559821    0.567805
 N    0.369989   -1.137972   -0.233377
 C   -0.764178   -0.476192   -0.630244
 C   -1.984930   -1.104059   -0.572480
 H    0.207003   -2.129995   -0.055539
 C   -0.612638    0.934617   -1.066024
 C   -3.302820   -0.664618   -1.016367
 N   -3.499488   -2.733473   -0.146985
 C   -2.149923   -2.464051   -0.052024
 C   -4.180589   -1.652948   -0.736504
 C   -1.448411    1.939523   -0.567690
 C    0.412880    1.274832   -1.955317
 C   -1.274195    3.260823   -0.969695
 C    0.582778    2.594838   -2.358572
 C   -0.260658    3.590277   -1.867744
 C    2.711452   -1.015460    0.410979
 C    1.139963    0.423072    1.521468
 C    3.738640   -0.510247    1.195274
 C    2.165642    0.936981    2.304937
 C    3.480658    0.471659    2.164471
 H   -3.898901   -3.608999    0.130197
 O   -1.274795   -3.263932    0.377331
 H   -2.220795    1.682694    0.144818
 H    1.072040    0.499664   -2.320678
 H   -1.921953    4.032614   -0.576685
 H    1.374751    2.848860   -3.049668
 H   -0.123692    4.617229   -2.177728
 H    2.920914   -1.762746   -0.342531
 H    0.129684    0.779206    1.664970
 H    4.751514   -0.862731    1.048814
 H    1.943261    1.695657    3.044769
 N    4.515478    1.005392    2.925167
 H   -3.533504    0.274345   -1.486702
 H   -5.241442   -1.700632   -0.904477
 H    5.316802    0.439504    3.130956
 H    4.301299    1.717795    3.597286
}
memory 8.166666666666666GB
set_num_threads(2)
psi4_io.set_default_path("/scratch/bdw2292/Psi4-1_7_Index_0_GrowFragment_0-farH_in17")
set freeze_core True
E, wfn = energy('wb97x-d/6-311+G*',return_wfn=True)
oeprop(wfn,"WIBERG_LOWDIN_INDICES")
clean()
--------------------------------------------------------------------------

    Molecular point group: c1

    Geometry (in Angstrom), charge = 0, multiplicity = 1:

       Center              X                  Y                   Z               Mass
    ------------   -----------------  -----------------  -----------------  -----------------
         C            1.401790108750    -0.559820998699     0.567804974811    12.000000000000
         N            0.369989108750    -1.137971998699    -0.233377025189    14.003074004430
         C           -0.764177891250    -0.476191998699    -0.630244025189    12.000000000000
         C           -1.984929891250    -1.104058998699    -0.572480025189    12.000000000000
         H            0.207003108750    -2.129994998699    -0.055539025189     1.007825032230
         C           -0.612637891250     0.934617001301    -1.066024025189    12.000000000000
         C           -3.302819891250    -0.664617998699    -1.016367025189    12.000000000000
         N           -3.499487891250    -2.733472998699    -0.146985025189    14.003074004430
         C           -2.149922891250    -2.464050998699    -0.052024025189    12.000000000000
         C           -4.180588891250    -1.652947998699    -0.736504025189    12.000000000000
         C           -1.448410891250     1.939523001301    -0.567690025189    12.000000000000
         C            0.412880108750     1.274832001301    -1.955317025189    12.000000000000
         C           -1.274194891250     3.260823001301    -0.969695025189    12.000000000000
         C            0.582778108750     2.594838001301    -2.358572025189    12.000000000000
         C           -0.260657891250     3.590277001301    -1.867744025189    12.000000000000
         C            2.711452108750    -1.015459998699     0.410978974811    12.000000000000
         C            1.139963108750     0.423072001301     1.521467974811    12.000000000000
         C            3.738640108750    -0.510246998699     1.195273974811    12.000000000000
         C            2.165642108750     0.936981001301     2.304936974811    12.000000000000
         C            3.480658108750     0.471659001301     2.164470974811    12.000000000000
         H           -3.898900891250    -3.608998998699     0.130196974811     1.007825032230
         O           -1.274794891250    -3.263931998699     0.377330974811    15.994914619570
         H           -2.220794891250     1.682694001301     0.144817974811     1.007825032230
         H            1.072040108750     0.499664001301    -2.320678025189     1.007825032230
         H           -1.921952891250     4.032614001301    -0.576685025189     1.007825032230
         H            1.374751108750     2.848860001301    -3.049668025189     1.007825032230
         H           -0.123691891250     4.617229001301    -2.177728025189     1.007825032230
         H            2.920914108750    -1.762745998699    -0.342531025189     1.007825032230
         H            0.129684108750     0.779206001301     1.664969974811     1.007825032230
         H            4.751514108750    -0.862730998699     1.048813974811     1.007825032230
         H            1.943261108750     1.695657001301     3.044768974811     1.007825032230
         N            4.515478108750     1.005392001301     2.925166974811    14.003074004430
         H           -3.533503891250     0.274345001301    -1.486702025189     1.007825032230
         H           -5.241441891250    -1.700631998699    -0.904477025189     1.007825032230
         H            5.316802108750     0.439504001301     3.130955974811     1.007825032230
         H            4.301299108750     1.717795001301     3.597285974811     1.007825032230

  Charge       = 0
  Multiplicity = 1
  Basis Set: 6-311+G*
    Blend: 6-311+G*
  Basis Set: (6-311+G* AUX)
    Blend: HEAVY-AUG-CC-PVTZ-JKFIT

    Orbital Energies [Eh]
    ---------------------

    Doubly Occupied:

       1A    -19.203583     2A    -14.463456     3A    -14.454376
       4A    -14.439516     5A    -10.377801     6A    -10.355644
       7A    -10.332953     8A    -10.320356     9A    -10.317275
      10A    -10.309518    11A    -10.299435    12A    -10.298568
      13A    -10.297864    14A    -10.297781    15A    -10.296555
      16A    -10.288988    17A    -10.288362    18A    -10.284661
      19A    -10.284573    20A    -10.283011    21A    -10.277932
      22A     -1.121635    23A     -1.057209    24A     -1.046658
      25A     -1.025354    26A     -0.972182    27A     -0.943337
      28A     -0.900016    29A     -0.867709    30A     -0.857734
      31A     -0.851106    32A     -0.836133    33A     -0.806425
      34A     -0.762138    35A     -0.719963    36A     -0.715798
      37A     -0.713022    38A     -0.690887    39A     -0.678420
      40A     -0.659501    41A     -0.629969    42A     -0.619828
      43A     -0.609318    44A     -0.598605    45A     -0.592142
      46A     -0.574793    47A     -0.554298    48A     -0.546370
      49A     -0.532677    50A     -0.529596    51A     -0.520588
      52A     -0.517433    53A     -0.511514    54A     -0.509984
      55A     -0.506862    56A     -0.498394    57A     -0.485783
      58A     -0.475666    59A     -0.468057    60A     -0.466214
      61A     -0.444184    62A     -0.441389    63A     -0.436561
      64A     -0.421104    65A     -0.404061    66A     -0.395764
      67A     -0.344152    68A     -0.340681    69A     -0.335148
      70A     -0.332036    71A     -0.329220    72A     -0.280077
      73A     -0.254552

  @DF-RKS Final Energy:  -896.22228733629515

   => Energetics <=

    Nuclear Repulsion Energy =           1550.8870224126155790
    One-Electron Energy =               -4295.5659743948690448
    Two-Electron Energy =                1936.2418545027605887
    DFT Exchange-Correlation Energy =     -87.7592356162736564
    Empirical Dispersion Energy =          -0.0259542405290122
    VV10 Nonlocal Energy =                  0.0000000000000000
    Total Energy =                       -896.2222873362952669

  Dipole Moment: [D]
     X:     0.4888      Y:     3.2140      Z:     0.7977     Total:     3.3474

*** Psi4 exiting successfully. Buy a developer a beer!
