                               Psi4 1.5 release

  ==> Input File <==

--------------------------------------------------------------------------
molecule {
0 1
 C    1.676053   -0.492894   -0.242607
 N    0.310837   -0.880332   -0.280720
 C   -0.696264   -0.045925    0.024926
 C   -1.292210   -0.270444    1.254769
 H    0.007126   -1.604002   -0.951645
 C   -1.518305    0.541251   -1.076853
 C   -1.342862    0.515136    2.459663
 N   -2.517526   -1.391658    2.757611
 C   -2.061905   -1.496593    1.462524
 C   -2.088056   -0.195898    3.348768
 C   -1.765211    1.935462   -1.088879
 C   -2.063699   -0.263971   -2.109875
 C   -2.521961    2.512556   -2.117585
 C   -2.817431    0.318681   -3.137642
 C   -3.049780    1.709415   -3.149722
 C    2.595820   -1.103999   -1.128785
 C    2.102144    0.593861    0.560588
 C    3.928683   -0.668429   -1.167428
 C    3.437497    1.018620    0.514193
 C    4.381635    0.392024   -0.339410
 H   -3.087370   -2.109702    3.180574
 O   -2.271272   -2.447545    0.675247
 H   -1.357486    2.559403   -0.291322
 H   -1.902727   -1.343952   -2.097021
 H   -2.700476    3.589281   -2.119350
 H   -3.225466   -0.310233   -3.930785
 H   -3.636390    2.160540   -3.952292
 H    2.247985   -1.911286   -1.777507
 H    1.382353    1.087774    1.214897
 H    4.618427   -1.160441   -1.856842
 H    3.741417    1.852734    1.150407
 N    5.732798    0.831003   -0.378023
 H   -0.888180    1.479371    2.633939
 H   -2.365776    0.036874    4.367492
 H    6.335715    0.042977   -0.627307
 H    6.036249    1.048847    0.574882
}
set optking {
  frozen_dihedral = ("
    1 2 3 4
    16 1 2 3
    2 3 6 11
    18 20 32 35
  ")
}
set {
  geom_maxiter 400
  g_convergence GAU_LOOSE
  dynamic_level 1
}
memory 8.166666666666666GB
set_num_threads(2)
psi4_io.set_default_path("/scratch/bdw2292/Psi4-1_7_Index_0_GrowFragment_0-farH_in17")
for _ in range(1):
  try:
    set opt_coordinates both
    optimize('wb97x-d/6-311G')
    break
  except OptimizationConvergenceError:
    break
  else:
    try:
      set opt_coordinates cartesian
      optimize('wb97x-d/6-311G')
      break
    except OptimizationConvergenceError:
      pass
clean()
--------------------------------------------------------------------------

    Molecular point group: c1
  Charge       = 0
  Multiplicity = 1
  Basis Set: 6-311G
    Blend: 6-311G
  Basis Set: (6-311G AUX)
    Blend: CC-PVTZ-JKFIT
  @DF-RKS Final Energy:  -895.84371941780068
    Total Energy =                       -895.8437194178006848
    Molecular point group: c1
  Basis Set: 6-311G
    Blend: 6-311G
  Basis Set: (6-311G AUX)
    Blend: CC-PVTZ-JKFIT
  Basis Set: 6-311G
    Blend: 6-311G
  Basis Set: (6-311G AUX)
    Blend: CC-PVTZ-JKFIT
  @DF-RKS Final Energy:  -895.86685390759931
    Total Energy =                       -895.8668539075993067
  Basis Set: 6-311G
    Blend: 6-311G
  Basis Set: (6-311G AUX)
    Blend: CC-PVTZ-JKFIT
  Basis Set: 6-311G
    Blend: 6-311G
  @DF-RKS Final Energy:  -895.88844828423782
    Total Energy =                       -895.8884482842379384
  @DF-RKS Final Energy:  -895.90033720406768
    Total Energy =                       -895.9003372040676823
  @DF-RKS Final Energy:  -895.91431731853038
    Total Energy =                       -895.9143173185303795
  @DF-RKS Final Energy:  -895.92230810068020
    Total Energy =                       -895.9223081006801976
  @DF-RKS Final Energy:  -895.93016169875455
    Total Energy =                       -895.9301616987545458
  @DF-RKS Final Energy:  -895.93701686517579
    Total Energy =                       -895.9370168651757922
  @DF-RKS Final Energy:  -895.94241795015046
    Total Energy =                       -895.9424179501504568
  @DF-RKS Final Energy:  -895.92691672880915
    Total Energy =                       -895.9269167288090330
  @DF-RKS Final Energy:  -895.94241790738738
    Total Energy =                       -895.9424179073873802
  @DF-RKS Final Energy:  -895.94620537157641
    Total Energy =                       -895.9462053715764114
  @DF-RKS Final Energy:  -895.94848872532577
    Total Energy =                       -895.9484887253257739
  @DF-RKS Final Energy:  -895.95024344356636
    Total Energy =                       -895.9502434435663645
  @DF-RKS Final Energy:  -895.95167912493412
    Total Energy =                       -895.9516791249340031
  @DF-RKS Final Energy:  -895.95288488609219
    Total Energy =                       -895.9528848860920789
  @DF-RKS Final Energy:  -895.95397582742828
    Total Energy =                       -895.9539758274282804
  @DF-RKS Final Energy:  -895.95507833120416
    Total Energy =                       -895.9550783312041631
  @DF-RKS Final Energy:  -895.95616305329770
    Total Energy =                       -895.9561630532977006
  @DF-RKS Final Energy:  -895.95432865938471
    Total Energy =                       -895.9543286593847142
  @DF-RKS Final Energy:  -895.97297476371693
    Total Energy =                       -895.9729747637170476
  @DF-RKS Final Energy:  -895.97420916571593
    Total Energy =                       -895.9742091657160472
  @DF-RKS Final Energy:  -895.97449799310641
    Total Energy =                       -895.9744979931065245
  @DF-RKS Final Energy:  -895.97490130257722
    Total Energy =                       -895.9749013025772229
  @DF-RKS Final Energy:  -895.97511818370253
    Total Energy =                       -895.9751181837025342
  @DF-RKS Final Energy:  -895.97517061678639
    Total Energy =                       -895.9751706167864995
  @DF-RKS Final Energy:  -895.97519301585191
    Total Energy =                       -895.9751930158519144
  @DF-RKS Final Energy:  -895.97520287571717
    Total Energy =                       -895.9752028757170592
  @DF-RKS Final Energy:  -895.97520841967969
    Total Energy =                       -895.9752084196796886
  @DF-RKS Final Energy:  -895.97518215686137
    Total Energy =                       -895.9751821568613650
  @DF-RKS Final Energy:  -895.97520508714854
    Total Energy =                       -895.9752050871485380
  @DF-RKS Final Energy:  -895.97520845343774
    Total Energy =                       -895.9752084534377445
  @DF-RKS Final Energy:  -895.97520947155215
    Total Energy =                       -895.9752094715521480
  @DF-RKS Final Energy:  -895.97515905541934
    Total Energy =                       -895.9751590554193399
  @DF-RKS Final Energy:  -895.97519795962421
    Total Energy =                       -895.9751979596240972
  @DF-RKS Final Energy:  -895.97512179508203
    Total Energy =                       -895.9751217950821456
  @DF-RKS Final Energy:  -895.97518354616204
    Total Energy =                       -895.9751835461620431
  @DF-RKS Final Energy:  -895.97459009642205
    Total Energy =                       -895.9745900964220482
  Basis Set: (6-311G AUX)
    Blend: CC-PVTZ-JKFIT
  Basis Set: 6-311G
    Blend: 6-311G
  Basis Set: (6-311G AUX)
    Blend: CC-PVTZ-JKFIT
  @DF-RKS Final Energy:  -895.97505926979034
    Total Energy =                       -895.9750592697903357
  Basis Set: 6-311G
    Blend: 6-311G
  Basis Set: (6-311G AUX)
    Blend: CC-PVTZ-JKFIT
  Charge       = 0
  Multiplicity = 1
  Basis Set: 6-311G
    Blend: 6-311G
  Basis Set: (6-311G AUX)
    Blend: CC-PVTZ-JKFIT

    Orbital Energies [Eh]
    ---------------------

    Doubly Occupied:

       1A    -19.212665     2A    -14.471091     3A    -14.443566
       4A    -14.431220     5A    -10.395675     6A    -10.356164
       7A    -10.333072     8A    -10.328957     9A    -10.317599
      10A    -10.308716    11A    -10.298782    12A    -10.298630
      13A    -10.297523    14A    -10.296424    15A    -10.295343
      16A    -10.294774    17A    -10.286130    18A    -10.285876
      19A    -10.284453    20A    -10.281901    21A    -10.281437
      22A     -1.145048    23A     -1.062845    24A     -1.052379
      25A     -1.022243    26A     -0.972940    27A     -0.942236
      28A     -0.905454    29A     -0.870686    30A     -0.857504
      31A     -0.849343    32A     -0.836525    33A     -0.812784
      34A     -0.766489    35A     -0.716996    36A     -0.716347
      37A     -0.710355    38A     -0.692258    39A     -0.684843
      40A     -0.657349    41A     -0.627373    42A     -0.618247
      43A     -0.608172    44A     -0.600160    45A     -0.588056
      46A     -0.578292    47A     -0.553666    48A     -0.545803
      49A     -0.532287    50A     -0.530738    51A     -0.524098
      52A     -0.521529    53A     -0.515697    54A     -0.511892
      55A     -0.508143    56A     -0.503136    57A     -0.486899
      58A     -0.471082    59A     -0.466368    60A     -0.463534
      61A     -0.439451    62A     -0.433416    63A     -0.431704
      64A     -0.411372    65A     -0.407041    66A     -0.388129
      67A     -0.344497    68A     -0.338597    69A     -0.334144
      70A     -0.327970    71A     -0.326137    72A     -0.277814
      73A     -0.257771

  @DF-RKS Final Energy:  -895.97518354182444

   => Energetics <=

    Nuclear Repulsion Energy =           1555.9574243797517283
    One-Electron Energy =               -4305.1390711747735622
    Two-Electron Energy =                1940.9732907113775582
    DFT Exchange-Correlation Energy =     -87.7406437889737560
    Empirical Dispersion Energy =          -0.0261836692061684
    VV10 Nonlocal Energy =                  0.0000000000000000
    Total Energy =                       -895.9751835418244355

  Dipole Moment: [D]
     X:     1.2870      Y:     2.3261      Z:     1.1859     Total:     2.9109

    Molecular point group: c1
  Basis Set: 6-311G
    Blend: 6-311G
  Basis Set: (6-311G AUX)
    Blend: CC-PVTZ-JKFIT

  -Total Gradient:
     Atom            X                  Y                   Z
    ------   -----------------  -----------------  -----------------
       1       -0.001615701081    -0.006753266122     0.011490528613
       2        0.008511028649     0.009564706907    -0.009967632296
       3       -0.017574146575    -0.007430696425    -0.007783314597
       4        0.010724228126     0.002838967454     0.008015667510
       5       -0.000076567680     0.000078022120    -0.000006038773
       6       -0.001771669569     0.000719519144     0.000312806327
       7        0.000192138140     0.000122942186    -0.000046941903
       8        0.000274402597     0.000057980347     0.000029480250
       9       -0.000322351959    -0.000125279705    -0.000371220922
      10       -0.000122388903     0.000035221812    -0.000066837978
      11        0.001728590490    -0.000391185079     0.000012392677
      12       -0.000039893649     0.000113077137    -0.000219814435
      13       -0.000134352777     0.000043488043    -0.000051946510
      14        0.000127983277    -0.000015741941    -0.000096534749
      15       -0.000137337553     0.000184653771     0.000035069365
      16        0.000250648711    -0.000198267573     0.000017623771
      17        0.000076256763     0.000538600716    -0.000404469189
      18        0.000245601447     0.001819218661    -0.001305777391
      19       -0.000246894912    -0.000371372618     0.000242418196
      20       -0.000358733564    -0.002783444022     0.002335956269
      21       -0.000032385037    -0.000051543264     0.000061432514
      22        0.000164629871    -0.000111533904    -0.000025337725
      23       -0.000186593958     0.000061981808     0.000017687311
      24        0.000008031806    -0.000021346921    -0.000056414575
      25        0.000099480673     0.000102837087     0.000053450066
      26        0.000006024023     0.000042441402    -0.000041043077
      27        0.000033196267     0.000027409374     0.000045630456
      28        0.000073198001     0.000355486933    -0.000260755634
      29       -0.000052308989     0.000004291297     0.000049303456
      30        0.000071770633     0.000123569860    -0.000149757175
      31       -0.000053228878     0.000032469281    -0.000007971532
      32        0.000546850503     0.002624628584    -0.003770364468
      33       -0.000145389479     0.000151388742    -0.000124964172
      34       -0.000027200405     0.000054027422    -0.000023954988
      35       -0.000349475315    -0.001291959713     0.002388093064
      36       -0.000036564707    -0.000020234555     0.000022205764

  **** Optimization is complete! (in 1 steps) ****
    Final optimized geometry and variables:
    Molecular point group: c1

    Geometry (in Angstrom), charge = 0, multiplicity = 1:

    C            0.965666330971    -1.211250729911    -0.368472318324
    N           -0.454410099160    -1.146672613098    -0.624313805905
    C           -1.162111661888    -0.008972902233    -0.225456221609
    C           -1.984956774896    -0.032708991797     0.862669612859
    H           -0.903894355512    -1.994455411747    -0.283699677024
    C           -0.806403688560     1.235028243432    -0.949395032199
    C           -2.860283963084     1.003912001954     1.407512896876
    N           -3.086327687578    -0.846832738054     2.675814334690
    C           -2.204699146052    -1.239936698757     1.687760103596
    C           -3.483956261611     0.489171589357     2.487187986602
    C           -0.526535907024     2.427691603272    -0.271177173898
    C           -0.680508760342     1.198914144939    -2.343560658181
    C           -0.159378289481     3.569666725489    -0.976952448137
    C           -0.320181516446     2.342952559711    -3.047858874233
    C           -0.062291008836     3.531880762832    -2.366715035658
    C            1.780321004208    -1.932231177738    -1.240507953930
    C            1.545164875800    -0.557863154254     0.716020739673
    C            3.147966606765    -2.019935223097    -1.023084899810
    C            2.913730639300    -0.645344858053     0.942644965050
    C            3.737188598521    -1.383524805168     0.081258240076
    H           -3.424414985974    -1.472864979549     3.380633759739
    O           -1.736018278294    -2.394654764380     1.555029679453
    H           -0.575723567433     2.450152941217     0.808955246894
    H           -0.863333167876     0.266262478743    -2.858242536946
    H            0.065517935016     4.482951823927    -0.442676873514
    H           -0.233892717063     2.306559736437    -4.125280304287
    H            0.225489260882     4.419356991372    -2.913900280064
    H            1.333167794057    -2.400415760705    -2.106703611248
    H            0.922760345733     0.005379113015     1.398564096540
    H            3.773105071775    -2.561371967523    -1.721805428101
    H            3.348164577185    -0.140809152932     1.796765395518
    N            5.113713700225    -1.438254535112     0.274825792691
    H           -2.990686677183     1.994802092222     1.011242074610
    H           -4.194707615307     0.945599105479     3.152710643080
    H            5.623690163115    -2.237391928401    -0.050811968658
    H            5.511350940297    -0.955629258107     1.058311502276

*** Psi4 exiting successfully. Buy a developer a beer!
