                               Psi4 1.3.2 release

  ==> Input File <==

--------------------------------------------------------------------------
molecule {
0 1
 C   -0.714046    1.498799   -0.195090
 C   -0.762204    0.242049    0.367892
 N    0.306078   -0.121894    1.228443
 C    1.649354   -0.437267    0.826804
 H   -0.015816   -0.758585    1.957759
 C   -0.795407    2.774359    0.493898
 N   -0.583455    3.187961   -1.717328
 C   -0.581515    1.801201   -1.662907
 C   -0.710758    3.746752   -0.452855
 C   -1.892373   -0.716563    0.216628
 C   -3.211229   -0.269448    0.490882
 C   -1.700197   -2.069555   -0.155591
 C   -4.298729   -1.145203    0.388266
 C   -2.790140   -2.943944   -0.256188
 C   -4.095966   -2.488017    0.013567
 C    1.980015   -1.469507   -0.081708
 C    2.703373    0.330901    1.376351
 C    3.316948   -1.732182   -0.413434
 C    4.037817    0.066375    1.041220
 C    4.376589   -0.977833    0.146650
 H   -0.499561    3.682184   -2.593996
 O   -0.491912    1.079960   -2.657253
 H   -3.379617    0.767100    0.787960
 H   -0.699668   -2.440648   -0.365942
 H   -5.304033   -0.780269    0.603438
 H   -2.620904   -3.982956   -0.543100
 H   -4.944021   -3.170160   -0.066219
 H    1.201000   -2.069892   -0.547703
 H    2.479606    1.144045    2.070138
 H    3.531496   -2.535404   -1.121914
 H    4.821124    0.684519    1.485248
 N    5.735098   -1.244056   -0.197180
 H   -0.900045    2.917371    1.559573
 H   -0.729802    4.822703   -0.345306
 H    5.908608   -2.216152   -0.454350
 H    6.400061   -0.968105    0.525982
}
set optking {
  frozen_dihedral = ("
    16 4 3 2
    1 2 10 11
    1 2 10 12
    3 2 10 11
    1 2 3 4
    10 2 3 4
    18 20 32 35
  ")
}
set {
  geom_maxiter 400
  g_convergence GAU_LOOSE
  dynamic_level 1
}
memory 8.333333333333334GB
set_num_threads(1)
psi4_io.set_default_path("/scratch/bdw2292/Psi4-7_1_Index_0_GrowFragment_0-farH_in17")
for _ in range(1):
  try:
    set opt_coordinates both
    optimize('wb97x-d/6-311G')
    break
  except OptimizationConvergenceError:
    break
  else:
    try:
      set opt_coordinates cartesian
      optimize('wb97x-d/6-311G')
      break
    except OptimizationConvergenceError:
      pass
clean()
--------------------------------------------------------------------------

    Molecular point group: c1
  Charge       = 0
  Multiplicity = 1
  Basis Set: 6-311G
    Blend: 6-311G
  Basis Set: (6-311G AUX)
    Blend: CC-PVTZ-JKFIT
  @DF-RKS Final Energy:  -895.89766505048181
    Total Energy =                       -895.8976650504818053
    Molecular point group: c1
  Basis Set: 6-311G
    Blend: 6-311G
  Basis Set: (6-311G AUX)
    Blend: CC-PVTZ-JKFIT
  Basis Set: 6-311G
    Blend: 6-311G
  Basis Set: (6-311G AUX)
    Blend: CC-PVTZ-JKFIT
  @DF-RKS Final Energy:  -895.57665888720430
    Total Energy =                       -895.5766588872044167
  Basis Set: 6-311G
    Blend: 6-311G
  Basis Set: (6-311G AUX)
    Blend: CC-PVTZ-JKFIT
  Basis Set: 6-311G
    Blend: 6-311G
  @DF-RKS Final Energy:  -895.77369043537692
    Total Energy =                       -895.7736904353769205
  @DF-RKS Final Energy:  -895.91088847515482
    Total Energy =                       -895.9108884751549340
  @DF-RKS Final Energy:  -895.94366984100031
    Total Energy =                       -895.9436698410003146
  @DF-RKS Final Energy:  -895.94750814113536
    Total Energy =                       -895.9475081411353585
  @DF-RKS Final Energy:  -895.94366983070881
    Total Energy =                       -895.9436698307086999
  @DF-RKS Final Energy:  -895.94947005239874
    Total Energy =                       -895.9494700523987376
  @DF-RKS Final Energy:  -895.95228725498123
    Total Energy =                       -895.9522872549811154
  @DF-RKS Final Energy:  -895.95422914579899
    Total Energy =                       -895.9542291457991041
  @DF-RKS Final Energy:  -895.95566082393123
    Total Energy =                       -895.9556608239312254
  @DF-RKS Final Energy:  -895.95672673254546
    Total Energy =                       -895.9567267325455759
  @DF-RKS Final Energy:  -895.95748315503488
    Total Energy =                       -895.9574831550347653
  @DF-RKS Final Energy:  -895.95795215861472
    Total Energy =                       -895.9579521586146029
  @DF-RKS Final Energy:  -895.95815855819330
    Total Energy =                       -895.9581585581934178
  @DF-RKS Final Energy:  -895.95817409531037
    Total Energy =                       -895.9581740953103690
  Basis Set: (6-311G AUX)
    Blend: CC-PVTZ-JKFIT
  Basis Set: 6-311G
    Blend: 6-311G
  Basis Set: (6-311G AUX)
    Blend: CC-PVTZ-JKFIT
  @DF-RKS Final Energy:  -895.95817386274405
    Total Energy =                       -895.9581738627439336
  Basis Set: 6-311G
    Blend: 6-311G
  Basis Set: (6-311G AUX)
    Blend: CC-PVTZ-JKFIT
  Charge       = 0
  Multiplicity = 1
  Basis Set: 6-311G
    Blend: 6-311G
  Basis Set: (6-311G AUX)
    Blend: CC-PVTZ-JKFIT

    Orbital Energies [Eh]
    ---------------------

    Doubly Occupied:

       1A    -19.200752     2A    -14.459485     3A    -14.445484
       4A    -14.440801     5A    -10.387579     6A    -10.349371
       7A    -10.344124     8A    -10.325235     9A    -10.322346
      10A    -10.305076    11A    -10.297013    12A    -10.295430
      13A    -10.293340    14A    -10.292365    15A    -10.291932
      16A    -10.291183    17A    -10.290750    18A    -10.290546
      19A    -10.289758    20A    -10.287964    21A    -10.274706
      22A     -1.135871    23A     -1.053498    24A     -1.045992
      25A     -1.031756    26A     -0.969210    27A     -0.947979
      28A     -0.899437    29A     -0.867794    30A     -0.858586
      31A     -0.852507    32A     -0.832763    33A     -0.814955
      34A     -0.760333    35A     -0.725921    36A     -0.710242
      37A     -0.706470    38A     -0.700668    39A     -0.678177
      40A     -0.643976    41A     -0.632247    42A     -0.621703
      43A     -0.618605    44A     -0.597733    45A     -0.596460
      46A     -0.564216    47A     -0.555517    48A     -0.542051
      49A     -0.537018    50A     -0.530655    51A     -0.527212
      52A     -0.520134    53A     -0.516061    54A     -0.510723
      55A     -0.507753    56A     -0.491152    57A     -0.484295
      58A     -0.477406    59A     -0.469411    60A     -0.456408
      61A     -0.444695    62A     -0.432585    63A     -0.426613
      64A     -0.402751    65A     -0.399122    66A     -0.386377
      67A     -0.342656    68A     -0.337061    69A     -0.334414
      70A     -0.322724    71A     -0.315645    72A     -0.281175
      73A     -0.259560

  @DF-RKS Final Energy:  -895.95818769104835

   => Energetics <=

    Nuclear Repulsion Energy =           1536.3008895202563053
    One-Electron Energy =               -4265.9833966541491463
    Two-Electron Energy =                1921.4868171866476132
    DFT Exchange-Correlation Energy =     -87.7363382695371428
    Empirical Dispersion Energy =          -0.0261594742661418
    VV10 Nonlocal Energy =                  0.0000000000000000
    Total Energy =                       -895.9581876910482379

  Dipole Moment: [D]
     X:     4.4058      Y:    -0.4176      Z:     2.3780     Total:     5.0239

    Molecular point group: c1
  Basis Set: 6-311G
    Blend: 6-311G
  Basis Set: (6-311G AUX)
    Blend: CC-PVTZ-JKFIT

  -Total Gradient:
     Atom            X                  Y                   Z
    ------   -----------------  -----------------  -----------------
       1        0.002624189174     0.006191235964     0.003784717393
       2       -0.009381374724    -0.004931428710    -0.001654839100
       3        0.008598202810     0.016635911549    -0.007176817746
       4       -0.006227890135    -0.010096729411    -0.000857713468
       5        0.000003396160     0.000000317066    -0.000024288183
       6        0.000295736586    -0.000047332334     0.000367971700
       7       -0.000221281838    -0.000020260540    -0.000395222521
       8        0.000261654052     0.000318897541     0.000205673072
       9       -0.000112142759    -0.000092479574     0.000103539063
      10        0.004305991737    -0.007056192059     0.002188397541
      11        0.000105055613     0.000477494263     0.001157873686
      12       -0.000235989575    -0.001039335222    -0.002344464916
      13       -0.000028858193    -0.000006851673     0.000018259529
      14        0.000056436308     0.000023574100    -0.000020425879
      15       -0.000037711293     0.000040462123    -0.000027708860
      16        0.000078355288    -0.000341986843     0.004891882788
      17       -0.000081020697    -0.000031264217    -0.000056949366
      18        0.000065063174     0.000349826341    -0.002308066588
      19        0.000022639592    -0.000008980356    -0.000011107800
      20       -0.000019828393    -0.000151369525     0.004499461664
      21        0.000002778336    -0.000028462820    -0.000088847655
      22        0.000059112622     0.000028393651    -0.000128571781
      23       -0.000008058529    -0.000016978167    -0.000024381040
      24        0.000000744599    -0.000001190710    -0.000009981551
      25        0.000003542913     0.000016670898    -0.000011645111
      26        0.000004554075     0.000008111403    -0.000006829298
      27       -0.000003590988     0.000024410213    -0.000004865946
      28        0.000000111525     0.000005999693     0.000006768582
      29        0.000019299138    -0.000014486630    -0.000004543231
      30       -0.000006245183    -0.000000224759    -0.000006213866
      31        0.000017501806    -0.000017440029    -0.000005882430
      32       -0.000694959541    -0.001131155773    -0.005156953134
      33       -0.000011497890    -0.000010865085     0.000005756844
      34       -0.000038042034    -0.000016687984    -0.000048985751
      35        0.000596916913     0.000966913280     0.002975104996
      36        0.000077067807    -0.000032053979    -0.000027564611

  **** Optimization is complete! (in 11 steps) ****
    Final optimized geometry and variables:
    Molecular point group: c1

    Geometry (in Angstrom), charge = 0, multiplicity = 1:

    C           -0.432678538670     1.216642886192    -1.071334978537
    C           -0.683705966288     0.605435505825     0.115125332369
    N            0.321029872590     0.672754248716     1.111840100082
    C            1.558661300983    -0.074182814910     1.037138699171
    H           -0.072106123923     0.650213775351     2.043534756817
    C            0.733271065546     2.029167279524    -1.413306543862
    N           -0.543439386775     1.844499391715    -3.261098554804
    C           -1.252401712159     1.115597260879    -2.314907408178
    C            0.627055499221     2.387020604093    -2.707426593546
    C           -1.961778998672    -0.048416801551     0.497840557729
    C           -3.163945060150     0.655480577684     0.347443811202
    C           -2.004743715369    -1.337033674903     1.040075339223
    C           -4.374151413195     0.085615117992     0.722032448679
    C           -3.217758349241    -1.913550691753     1.406148668195
    C           -4.405445764937    -1.203897737798     1.249558022298
    C            1.622109696832    -1.464390801785     0.935463023743
    C            2.756860664461     0.629978711292     1.168338318006
    C            2.843400215936    -2.126305388305     0.931308957035
    C            3.982327281347    -0.021970022171     1.195010314314
    C            4.045905991635    -1.418521921113     1.078043517507
    H           -0.856402027973     1.944425213938    -4.206906238926
    O           -2.320621442992     0.523184611042    -2.545605635983
    H           -3.140301006475     1.648128912036    -0.078069375831
    H           -1.094129356734    -1.897109100794     1.181674845642
    H           -5.291706108529     0.643266503855     0.595189248504
    H           -3.233290833741    -2.916043265534     1.811699407280
    H           -5.347172649253    -1.651723226619     1.536447115721
    H            0.720582132897    -2.043607548465     0.809514392959
    H            2.712543294746     1.706085054015     1.264992274053
    H            2.870136442431    -3.201423394075     0.808353589016
    H            4.895357257237     0.549349717331     1.306791218718
    N            5.264672523754    -2.081338163760     1.047632993002
    H            1.514313386020     2.309439863365    -0.732900881620
    H            1.277702185502     3.001906167334    -3.304034538197
    H            5.318128680409    -3.035568434988     1.348760727233
    H            6.111553666479    -1.549740266392     1.116176058585

*** Psi4 exiting successfully. Buy a developer a beer!
