                               Psi4 1.3.2 release

  ==> Input File <==

--------------------------------------------------------------------------
molecule {
0 1
 C   -0.623150    1.243894   -0.810911
 C   -0.758972   -0.103119   -0.538433
 N    0.373338   -0.959847   -0.607485
 C    1.699932   -0.843021   -0.055619
 H    0.466325   -1.228484   -1.590648
 C   -0.685190    2.361894    0.114230
 N   -0.320654    3.192192   -1.956412
 C   -0.387259    1.824484   -2.179475
 C   -0.496006    3.495551   -0.613159
 C   -2.006173   -0.773736   -0.089781
 C   -2.741517   -0.281991    1.018320
 C   -2.457857   -1.951485   -0.737793
 C   -3.901391   -0.936721    1.450308
 C   -3.617295   -2.604528   -0.301945
 C   -4.347490   -2.100837    0.793173
 C    2.640581   -1.865784   -0.345151
 C    2.120441    0.216866    0.787582
 C    3.944234   -1.817478    0.166568
 C    3.425530    0.258229    1.298499
 C    4.365475   -0.758924    1.005567
 H   -0.160590    3.843743   -2.711068
 O   -0.265690    1.301593   -3.290339
 H   -2.401719    0.611857    1.541557
 H   -1.898331   -2.352072   -1.584201
 H   -4.457288   -0.539252    2.300741
 H   -3.952346   -3.506359   -0.816463
 H   -5.251610   -2.609784    1.131153
 H    2.357717   -2.711331   -0.976862
 H    1.440732    1.022499    1.060851
 H    4.637540   -2.619898   -0.095374
 H    3.709810    1.099369    1.934721
 N    5.694635   -0.709060    1.521894
 H   -0.844909    2.302117    1.181320
 H   -0.468081    4.528137   -0.292178
 H    6.121470   -1.628360    1.641272
 H    5.771524   -0.191700    2.398171
}
set optking {
  frozen_dihedral = ("
    1 2 3 4
    10 2 3 4
    1 2 10 11
    1 2 10 12
    3 2 10 11
    16 4 3 2
    18 20 32 35
  ")
}
set {
  geom_maxiter 400
  g_convergence GAU_LOOSE
  dynamic_level 1
}
memory 8.333333333333334GB
set_num_threads(1)
psi4_io.set_default_path("/scratch/bdw2292/Psi4-7_1_Index_0_GrowFragment_0-farH_in17")
for _ in range(1):
  try:
    set opt_coordinates both
    optimize('wb97x-d/6-311G')
    break
  except OptimizationConvergenceError:
    break
  else:
    try:
      set opt_coordinates cartesian
      optimize('wb97x-d/6-311G')
      break
    except OptimizationConvergenceError:
      pass
clean()
--------------------------------------------------------------------------

    Molecular point group: c1
  Charge       = 0
  Multiplicity = 1
  Basis Set: 6-311G
    Blend: 6-311G
  Basis Set: (6-311G AUX)
    Blend: CC-PVTZ-JKFIT
  @DF-RKS Final Energy:  -895.86851130904279
    Total Energy =                       -895.8685113090427876
    Molecular point group: c1
  Basis Set: 6-311G
    Blend: 6-311G
  Basis Set: (6-311G AUX)
    Blend: CC-PVTZ-JKFIT
  Basis Set: 6-311G
    Blend: 6-311G
  Basis Set: (6-311G AUX)
    Blend: CC-PVTZ-JKFIT
  @DF-RKS Final Energy:  -895.88542101578719
    Total Energy =                       -895.8854210157871876
  Basis Set: 6-311G
    Blend: 6-311G
  Basis Set: (6-311G AUX)
    Blend: CC-PVTZ-JKFIT
  Basis Set: 6-311G
    Blend: 6-311G
  @DF-RKS Final Energy:  -895.91684671308701
    Total Energy =                       -895.9168467130871250
  @DF-RKS Final Energy:  -895.80357005703559
    Total Energy =                       -895.8035700570356994
  @DF-RKS Final Energy:  -895.92462940117900
    Total Energy =                       -895.9246294011790042
  @DF-RKS Final Energy:  -895.94489274261059
    Total Energy =                       -895.9448927426105911
  @DF-RKS Final Energy:  -895.94621856174138
    Total Energy =                       -895.9462185617412615
  @DF-RKS Final Energy:  -895.94489269816972
    Total Energy =                       -895.9448926981697241
  @DF-RKS Final Energy:  -895.94771261445851
    Total Energy =                       -895.9477126144585100
  @DF-RKS Final Energy:  -895.94988591364995
    Total Energy =                       -895.9498859136499505
  @DF-RKS Final Energy:  -895.95173863159334
    Total Energy =                       -895.9517386315933436
  @DF-RKS Final Energy:  -895.95337138585501
    Total Energy =                       -895.9533713858551209
  @DF-RKS Final Energy:  -895.95488196920735
    Total Energy =                       -895.9548819692073494
  @DF-RKS Final Energy:  -895.95632658679301
    Total Energy =                       -895.9563265867930113
  @DF-RKS Final Energy:  -895.95772075079049
    Total Energy =                       -895.9577207507905996
  @DF-RKS Final Energy:  -895.95902664988614
    Total Energy =                       -895.9590266498860274
  @DF-RKS Final Energy:  -895.96021245813665
    Total Energy =                       -895.9602124581366525
  @DF-RKS Final Energy:  -895.96124164904495
    Total Energy =                       -895.9612416490448368
  @DF-RKS Final Energy:  -895.96206455731931
    Total Energy =                       -895.9620645573191950
  @DF-RKS Final Energy:  -895.96261979695316
    Total Energy =                       -895.9626197969531631
  @DF-RKS Final Energy:  -895.96288358519200
    Total Energy =                       -895.9628835851921167
  @DF-RKS Final Energy:  -895.96291798008281
    Total Energy =                       -895.9629179800826932
  @DF-RKS Final Energy:  -895.96292285845516
    Total Energy =                       -895.9629228584552720
  @DF-RKS Final Energy:  -895.96292073125346
    Total Energy =                       -895.9629207312533481
  @DF-RKS Final Energy:  -895.96292460748305
    Total Energy =                       -895.9629246074831599
  @DF-RKS Final Energy:  -895.96251833610802
    Total Energy =                       -895.9625183361081326
  Basis Set: (6-311G AUX)
    Blend: CC-PVTZ-JKFIT
  Basis Set: 6-311G
    Blend: 6-311G
  Basis Set: (6-311G AUX)
    Blend: CC-PVTZ-JKFIT
  @DF-RKS Final Energy:  -895.96282692807802
    Total Energy =                       -895.9628269280780160
  Basis Set: 6-311G
    Blend: 6-311G
  Basis Set: (6-311G AUX)
    Blend: CC-PVTZ-JKFIT
  Charge       = 0
  Multiplicity = 1
  Basis Set: 6-311G
    Blend: 6-311G
  Basis Set: (6-311G AUX)
    Blend: CC-PVTZ-JKFIT

    Orbital Energies [Eh]
    ---------------------

    Doubly Occupied:

       1A    -19.197040     2A    -14.463945     3A    -14.457566
       4A    -14.423369     5A    -10.381888     6A    -10.359016
       7A    -10.323451     8A    -10.322544     9A    -10.320771
      10A    -10.319193    11A    -10.308737    12A    -10.306135
      13A    -10.306080    14A    -10.305142    15A    -10.304108
      16A    -10.291881    17A    -10.280743    18A    -10.277962
      19A    -10.276041    20A    -10.275907    21A    -10.275167
      22A     -1.132037    23A     -1.062638    24A     -1.050106
      25A     -1.014053    26A     -0.982845    27A     -0.939477
      28A     -0.903462    29A     -0.874048    30A     -0.867159
      31A     -0.844667    32A     -0.832695    33A     -0.811486
      34A     -0.765370    35A     -0.726065    36A     -0.720304
      37A     -0.706945    38A     -0.696484    39A     -0.681468
      40A     -0.650916    41A     -0.634359    42A     -0.619400
      43A     -0.601662    44A     -0.596142    45A     -0.591128
      46A     -0.577663    47A     -0.561049    48A     -0.552691
      49A     -0.530476    50A     -0.528569    51A     -0.525949
      52A     -0.518113    53A     -0.511728    54A     -0.508913
      55A     -0.501363    56A     -0.488746    57A     -0.485409
      58A     -0.472672    59A     -0.468550    60A     -0.462288
      61A     -0.448744    62A     -0.445176    63A     -0.435451
      64A     -0.419916    65A     -0.399455    66A     -0.384027
      67A     -0.346936    68A     -0.338519    69A     -0.333196
      70A     -0.321567    71A     -0.316860    72A     -0.268750
      73A     -0.240612

  @DF-RKS Final Energy:  -895.96292459725987

   => Energetics <=

    Nuclear Repulsion Energy =           1545.1087908129879906
    One-Electron Energy =               -4283.5621458780842659
    Two-Electron Energy =                1930.2605059840750528
    DFT Exchange-Correlation Energy =     -87.7444000411883280
    Empirical Dispersion Energy =          -0.0256754750502985
    VV10 Nonlocal Energy =                  0.0000000000000000
    Total Energy =                       -895.9629245972598710

  Dipole Moment: [D]
     X:    -1.5572      Y:    -1.7319      Z:     2.7873     Total:     3.6322

    Molecular point group: c1
  Basis Set: 6-311G
    Blend: 6-311G
  Basis Set: (6-311G AUX)
    Blend: CC-PVTZ-JKFIT

  -Total Gradient:
     Atom            X                  Y                   Z
    ------   -----------------  -----------------  -----------------
       1        0.012078869759    -0.001685318552    -0.002173862416
       2       -0.020926438381     0.000373961505     0.002220218365
       3        0.005100532818     0.008860811636    -0.004517598838
       4       -0.000157454845    -0.001050358474     0.001229056424
       5        0.000117814152     0.000323509731     0.000031708964
       6       -0.000009566551    -0.000022334007     0.000069343657
       7       -0.000042533116     0.000007635523    -0.000030992287
       8        0.000118730357     0.000073287048     0.000075078316
       9       -0.000020604299    -0.000010386677    -0.000009527294
      10        0.004003590183    -0.005335551796     0.001775170286
      11       -0.000772558135     0.000954131378    -0.000334994891
      12        0.000868470308    -0.001168649833     0.000360735199
      13       -0.000009707306     0.000001687664    -0.000010792057
      14        0.000003810606    -0.000007035061    -0.000003342308
      15       -0.000004550514    -0.000018026509    -0.000033183378
      16       -0.000365145636    -0.001346976315     0.001151866061
      17       -0.000006799886    -0.000040229099     0.000016523507
      18        0.000376400759     0.001339927129    -0.001007338144
      19        0.000016220863     0.000017307631    -0.000003529185
      20       -0.000829855063    -0.002396827516     0.002316125848
      21       -0.000007168935     0.000006054275    -0.000006214644
      22       -0.000012286530     0.000090668591    -0.000020110840
      23       -0.000009939190     0.000009397094    -0.000013126972
      24        0.000015445633     0.000003099720     0.000007187356
      25       -0.000011193849    -0.000016510182    -0.000018099895
      26       -0.000002422374    -0.000002453188    -0.000027948588
      27       -0.000007409025    -0.000007132236    -0.000025876954
      28       -0.000008452666     0.000003847772     0.000007706189
      29       -0.000021616109    -0.000001979230     0.000012253893
      30        0.000001763107    -0.000004919892     0.000007371182
      31       -0.000012518437    -0.000005439202     0.000018995354
      32        0.001003007437     0.002029291215    -0.003429537832
      33       -0.000004161982    -0.000017799150    -0.000001347450
      34       -0.000013834205    -0.000001745227     0.000001013081
      35       -0.000572870499    -0.000958808674     0.002128186461
      36       -0.000010745489    -0.000017266023     0.000039759052

  **** Optimization is complete! (in 1 steps) ****
    Final optimized geometry and variables:
    Molecular point group: c1

    Geometry (in Angstrom), charge = 0, multiplicity = 1:

    C           -0.796829675702     1.471756463596    -0.090204388894
    C           -0.997403787513     0.131384576353    -0.269285194503
    N           -0.017022827937    -0.671604310209    -0.835720506427
    C            1.367413814280    -0.749879107729    -0.508340577285
    H           -0.367539868548    -1.558695024554    -1.159411110436
    C           -1.696720451195     2.416713154725     0.576286960949
    N           -0.018794612517     3.597097064289    -0.339577117637
    C            0.278539646425     2.287356722096    -0.701684129310
    C           -1.196729838074     3.658839486477     0.413322905495
    C           -2.202412916243    -0.624862058158     0.170000122855
    C           -2.663051857186    -0.530561184777     1.487620982691
    C           -2.865588404940    -1.480229664714    -0.720012230055
    C           -3.760675524111    -1.278431961757     1.906147465808
    C           -3.962703195763    -2.225477681441    -0.299447432761
    C           -4.413436147360    -2.127229718439     1.015573104638
    C            2.162268760193    -1.613378553068    -1.263714955082
    C            1.939834220503    -0.094130924683     0.579029790497
    C            3.499666698463    -1.811118153013    -0.951211554766
    C            3.274948501084    -0.298987010213     0.901610143789
    C            4.080839244891    -1.159735504913     0.145446297925
    H            0.539011737710     4.372293581095    -0.639760489421
    O            1.236662319482     1.960645335824    -1.425258486324
    H           -2.144621583807     0.108749068785     2.188206332820
    H           -2.545105592378    -1.539513568032    -1.753074121359
    H           -4.100548614341    -1.201695937901     2.929923644945
    H           -4.469935315219    -2.874588630368    -1.000064011946
    H           -5.265756306118    -2.706639671471     1.342445497633
    H            1.736942881382    -2.111699148717    -2.126225481512
    H            1.347371311736     0.576218755762     1.183979833900
    H            4.104910149382    -2.460130897194    -1.571197752827
    H            3.699139886381     0.220869007790     1.751789126221
    N            5.432547178896    -1.324870494015     0.438327114246
    H           -2.607537834410     2.169108802458     1.090293150008
    H           -1.577625599458     4.602360043822     0.762080378273
    H            5.893755101912    -2.177580779911     0.186061208205
    H            5.830346752132    -0.815164148978     1.203704324896

*** Psi4 exiting successfully. Buy a developer a beer!
