                               Psi4 1.3.2 release

  ==> Input File <==

--------------------------------------------------------------------------
molecule {
0 1
 C   -0.671751    1.380551   -1.087382
 C   -0.714716    0.036659   -0.768750
 N    0.435023   -0.753522   -1.044443
 C    1.638935   -0.806557   -0.255587
 H    0.666559   -0.676997   -2.040210
 C   -0.758841    2.527721   -0.201588
 N   -0.493403    3.297265   -2.311836
 C   -0.480349    1.920891   -2.478662
 C   -0.649641    3.641283   -0.975405
 C   -1.814868   -0.693341   -0.091283
 C   -2.365566   -0.232515    1.130933
 C   -2.306843   -1.900354   -0.648823
 C   -3.388676   -0.948894    1.764585
 C   -3.328527   -2.614980   -0.011625
 C   -3.877624   -2.143312    1.197885
 C    2.718124   -1.614941   -0.692887
 C    1.797690   -0.086730    0.956244
 C    3.908569   -1.687122    0.043514
 C    2.990439   -0.163316    1.687948
 C    4.070459   -0.968909    1.253066
 H   -0.391855    3.927929   -3.093882
 O   -0.317304    1.351182   -3.562426
 H   -1.990497    0.685145    1.584263
 H   -1.883278   -2.273445   -1.582363
 H   -3.804690   -0.575850    2.701655
 H   -3.697358   -3.539615   -0.457929
 H   -4.675083   -2.700012    1.693092
 H    2.634561   -2.193551   -1.615920
 H    0.993238    0.541960    1.339667
 H    4.719614   -2.312735   -0.335989
 H    3.075723    0.416669    2.609654
 N    5.285796   -1.039260    1.996868
 H   -0.881131    2.502116    0.871255
 H   -0.666937    4.685106   -0.692939
 H    5.784551   -1.921605    1.877960
 H    5.165422   -0.858261    2.993971
}
set optking {
  frozen_dihedral = ("
    1 2 3 4
    10 2 3 4
    1 2 10 11
    1 2 10 12
    3 2 10 11
    16 4 3 2
    18 20 32 35
  ")
}
set {
  geom_maxiter 400
  g_convergence GAU_LOOSE
  dynamic_level 1
}
memory 8.333333333333334GB
set_num_threads(1)
psi4_io.set_default_path("/scratch/bdw2292/Psi4-7_1_Index_0_GrowFragment_0-farH_in17")
for _ in range(1):
  try:
    set opt_coordinates both
    optimize('wb97x-d/6-311G')
    break
  except OptimizationConvergenceError:
    break
  else:
    try:
      set opt_coordinates cartesian
      optimize('wb97x-d/6-311G')
      break
    except OptimizationConvergenceError:
      pass
clean()
--------------------------------------------------------------------------

    Molecular point group: c1
  Charge       = 0
  Multiplicity = 1
  Basis Set: 6-311G
    Blend: 6-311G
  Basis Set: (6-311G AUX)
    Blend: CC-PVTZ-JKFIT
  @DF-RKS Final Energy:  -895.88670911271061
    Total Energy =                       -895.8867091127106050
    Molecular point group: c1
  Basis Set: 6-311G
    Blend: 6-311G
  Basis Set: (6-311G AUX)
    Blend: CC-PVTZ-JKFIT
  Basis Set: 6-311G
    Blend: 6-311G
  Basis Set: (6-311G AUX)
    Blend: CC-PVTZ-JKFIT
  @DF-RKS Final Energy:  -895.84875961224691
    Total Energy =                       -895.8487596122469085
  Basis Set: 6-311G
    Blend: 6-311G
  Basis Set: (6-311G AUX)
    Blend: CC-PVTZ-JKFIT
  Basis Set: 6-311G
    Blend: 6-311G
  @DF-RKS Final Energy:  -895.91539467517589
    Total Energy =                       -895.9153946751757758
  @DF-RKS Final Energy:  -895.93302159023438
    Total Energy =                       -895.9330215902343753
  @DF-RKS Final Energy:  -895.94173895577080
    Total Energy =                       -895.9417389557708020
  @DF-RKS Final Energy:  -895.95484396361474
    Total Energy =                       -895.9548439636147350
  @DF-RKS Final Energy:  -895.95816493612870
    Total Energy =                       -895.9581649361285827
  @DF-RKS Final Energy:  -895.95829459663992
    Total Energy =                       -895.9582945966400302
  @DF-RKS Final Energy:  -895.95854063011893
    Total Energy =                       -895.9585406301189323
  @DF-RKS Final Energy:  -895.95868814399239
    Total Energy =                       -895.9586881439925037
  @DF-RKS Final Energy:  -895.95873861853693
    Total Energy =                       -895.9587386185369269
  @DF-RKS Final Energy:  -895.95874931028402
    Total Energy =                       -895.9587493102839062
  @DF-RKS Final Energy:  -895.95875364562357
    Total Energy =                       -895.9587536456234602
  @DF-RKS Final Energy:  -895.95874926761383
    Total Energy =                       -895.9587492676138254
  @DF-RKS Final Energy:  -895.95874738021541
    Total Energy =                       -895.9587473802154136
  @DF-RKS Final Energy:  -895.95875341813780
    Total Energy =                       -895.9587534181378032
  @DF-RKS Final Energy:  -895.95814201807343
    Total Energy =                       -895.9581420180733176
  @DF-RKS Final Energy:  -895.95860258210973
    Total Energy =                       -895.9586025821096200
  @DF-RKS Final Energy:  -895.95804527016810
    Total Energy =                       -895.9580452701682134
  @DF-RKS Final Energy:  -895.95854359323710
    Total Energy =                       -895.9585435932370956
  @DF-RKS Final Energy:  -895.95616602754342
    Total Energy =                       -895.9561660275434178
  @DF-RKS Final Energy:  -895.95810380465218
    Total Energy =                       -895.9581038046521826
  Basis Set: (6-311G AUX)
    Blend: CC-PVTZ-JKFIT
  Basis Set: 6-311G
    Blend: 6-311G
  Basis Set: (6-311G AUX)
    Blend: CC-PVTZ-JKFIT
  @DF-RKS Final Energy:  -895.95854353986817
    Total Energy =                       -895.9585435398682876
  Basis Set: 6-311G
    Blend: 6-311G
  Basis Set: (6-311G AUX)
    Blend: CC-PVTZ-JKFIT
  Charge       = 0
  Multiplicity = 1
  Basis Set: 6-311G
    Blend: 6-311G
  Basis Set: (6-311G AUX)
    Blend: CC-PVTZ-JKFIT

    Orbital Energies [Eh]
    ---------------------

    Doubly Occupied:

       1A    -19.224385     2A    -14.478082     3A    -14.433290
       4A    -14.420363     5A    -10.407693     6A    -10.354789
       7A    -10.340544     8A    -10.319687     9A    -10.313120
      10A    -10.312868    11A    -10.311068    12A    -10.300624
      13A    -10.298221    14A    -10.297497    15A    -10.296851
      16A    -10.296053    17A    -10.292693    18A    -10.274881
      19A    -10.274380    20A    -10.273236    21A    -10.272945
      22A     -1.157521    23A     -1.072201    24A     -1.045101
      25A     -1.010804    26A     -0.974498    27A     -0.935309
      28A     -0.908446    29A     -0.874608    30A     -0.859064
      31A     -0.841697    32A     -0.837006    33A     -0.809369
      34A     -0.770684    35A     -0.717808    36A     -0.711631
      37A     -0.709416    38A     -0.696402    39A     -0.682897
      40A     -0.654349    41A     -0.623818    42A     -0.616054
      43A     -0.608371    44A     -0.597721    45A     -0.581523
      46A     -0.575793    47A     -0.556338    48A     -0.549005
      49A     -0.536267    50A     -0.529808    51A     -0.528161
      52A     -0.520207    53A     -0.517854    54A     -0.512081
      55A     -0.505186    56A     -0.497924    57A     -0.493568
      58A     -0.466997    59A     -0.466079    60A     -0.457518
      61A     -0.441355    62A     -0.435218    63A     -0.421692
      64A     -0.417495    65A     -0.407500    66A     -0.381464
      67A     -0.348085    68A     -0.339301    69A     -0.337385
      70A     -0.327832    71A     -0.318040    72A     -0.285231
      73A     -0.244458

  @DF-RKS Final Energy:  -895.95865390113386

   => Energetics <=

    Nuclear Repulsion Energy =           1553.8773116730990296
    One-Electron Energy =               -4301.0282376210034272
    Two-Electron Energy =                1938.9562923369674081
    DFT Exchange-Correlation Energy =     -87.7378055733234135
    Empirical Dispersion Energy =          -0.0262147168735846
    VV10 Nonlocal Energy =                  0.0000000000000000
    Total Energy =                       -895.9586539011339710

  Dipole Moment: [D]
     X:    -1.9370      Y:     0.9062      Z:     2.4475     Total:     3.2502

    Molecular point group: c1
  Basis Set: 6-311G
    Blend: 6-311G
  Basis Set: (6-311G AUX)
    Blend: CC-PVTZ-JKFIT

  -Total Gradient:
     Atom            X                  Y                   Z
    ------   -----------------  -----------------  -----------------
       1        0.015749266734     0.000826961174    -0.000713529300
       2       -0.019574767310     0.004064237841     0.001858333068
       3       -0.001050498870    -0.010650125384     0.010259692247
       4        0.003025628447     0.012476749043    -0.005665317239
       5        0.000658193419    -0.000087638114    -0.000107931718
       6       -0.000137079172    -0.000069615201     0.000215820701
       7        0.000008052701    -0.000076060180     0.000010993923
       8       -0.000054964182     0.000134390194     0.000102604427
       9        0.000030352426    -0.000251144437     0.000020141080
      10        0.003241263607    -0.004403314363    -0.006921483316
      11        0.001552070695    -0.002124913861     0.000837504600
      12       -0.001811093880     0.000996543143    -0.000070143430
      13        0.000080384623     0.000011945186    -0.000025572962
      14        0.000206232142     0.000067153808     0.000053213997
      15       -0.000062701772    -0.000078537041     0.000066121044
      16       -0.000325981464    -0.000951035261     0.000458995714
      17       -0.000362343555     0.000063978241    -0.000067523164
      18       -0.000033478145     0.001127272186    -0.000605859938
      19       -0.000181191875     0.000021094089    -0.000154259208
      20       -0.000866180429    -0.001511295855     0.000864096778
      21       -0.000064176987     0.000027915255     0.000009486517
      22        0.000769885869     0.000209347865    -0.000065777302
      23       -0.000052974704    -0.000127266592     0.000014184716
      24        0.000029159162    -0.000034894806     0.000217193452
      25       -0.000015863611    -0.000048222338    -0.000045465292
      26        0.000069459825     0.000118254312     0.000099446757
      27       -0.000087869777    -0.000063813163     0.000029337505
      28       -0.000072080582    -0.000122290532    -0.000129253038
      29       -0.000360214324     0.000074753431    -0.000008368216
      30       -0.000143205143    -0.000069661843    -0.000070504278
      31       -0.000141852132    -0.000024925530     0.000023879451
      32        0.001178594657     0.002318199026    -0.001889492032
      33        0.000079590465    -0.000099035846     0.000247238691
      34       -0.000048597545    -0.000036785917    -0.000013682943
      35       -0.000961729449    -0.001416395455     0.001196781558
      36       -0.000123906241    -0.000058805069     0.000054245181

  **** Optimization is complete! (in 2 steps) ****
    Final optimized geometry and variables:
    Molecular point group: c1

    Geometry (in Angstrom), charge = 0, multiplicity = 1:

    C           -1.017604814950     1.423504967617    -0.638266105822
    C           -0.924336139467     0.075857348678    -0.651082815604
    N            0.263151052638    -0.520400088437    -1.190809847146
    C            1.429077565726    -0.538765461688    -0.356838542765
    H            0.515534771064    -0.085905499122    -2.073422932172
    C           -2.098501800929     2.258573219081    -0.106498764826
    N           -0.506334168679     3.626120671543    -0.934805741431
    C           -0.011081622517     2.365534093649    -1.216871841761
    C           -1.748864303124     3.546591832729    -0.283194618746
    C           -1.883494646439    -0.902804389413    -0.101566136776
    C           -2.352782635338    -0.811381129563     1.214302014929
    C           -2.305222474263    -1.970934122407    -0.900800159245
    C           -3.240352981262    -1.760034891621     1.716083259188
    C           -3.203487743651    -2.908106127012    -0.403950281690
    C           -3.674275216995    -2.805661350868     0.905067789334
    C            2.609485583871    -1.073822269786    -0.879136269120
    C            1.422128143591    -0.102503526224     0.966047558121
    C            3.764580785549    -1.125513810167    -0.116388772875
    C            2.572972990534    -0.187855907964     1.746708807905
    C            3.763928740406    -0.694068153860     1.219962783510
    H           -0.039654860206     4.465083501487    -1.219818035038
    O            1.025593569750     2.134614057996    -1.863963835300
    H           -2.006684432606    -0.005220346700     1.847691433202
    H           -1.907897850632    -2.065145735680    -1.900968579369
    H           -3.584995797769    -1.686625939696     2.738477025623
    H           -3.530063055001    -3.724070750166    -1.033663854037
    H           -4.366000440406    -3.541895353102     1.291647633159
    H            2.617972280516    -1.437425987555    -1.898509523904
    H            0.522627336162     0.308752216126     1.401524923519
    H            4.678653537191    -1.508402223637    -0.552489611810
    H            2.540492623883     0.145596599367     2.776952861664
    N            4.932801826216    -0.742538377961     1.980378214067
    H           -2.996692314594     1.896655846358     0.360224889813
    H           -2.273517117565     4.443383310445    -0.004667055124
    H            5.622853361741    -1.438267240372     1.769861066730
    H            4.902539646091    -0.428143744386     2.931587411943

*** Psi4 exiting successfully. Buy a developer a beer!
