                               Psi4 1.3.2 release

  ==> Input File <==

--------------------------------------------------------------------------
molecule {
0 1
 C   -0.638505    1.262116   -0.314995
 C   -0.778996   -0.089869   -0.090653
 N    0.313326   -0.915889    0.288614
 C    1.750407   -0.825679    0.355058
 H   -0.008012   -1.462108    1.089275
 C   -0.391115    2.290694    0.679504
 N   -0.561234    3.298028   -1.334666
 C   -0.758269    1.959347   -1.643534
 C   -0.352796    3.482035    0.025057
 C   -2.096563   -0.779575   -0.131565
 C   -3.199987   -0.293961    0.614323
 C   -2.246310   -1.976355   -0.875145
 C   -4.422817   -0.977132    0.598343
 C   -3.469858   -2.656831   -0.888575
 C   -4.566186   -2.161032   -0.153784
 C    2.467516   -1.974738    0.783763
 C    2.505388    0.324310    0.008965
 C    3.865056   -1.964013    0.882446
 C    3.904526    0.327592    0.106458
 C    4.615717   -0.810531    0.555959
 H   -0.578673    4.011070   -2.049728
 O   -0.987140    1.549249   -2.780489
 H   -3.095285    0.615982    1.207207
 H   -1.398851   -2.365156   -1.441707
 H   -5.262858   -0.588161    1.175874
 H   -3.567823   -3.574489   -1.470421
 H   -5.519389   -2.692146   -0.165565
 H    1.934047   -2.893125    1.041679
 H    2.022913    1.233121   -0.344703
 H    4.371578   -2.871973    1.217787
 H    4.444907    1.234702   -0.173949
 N    6.038786   -0.802853    0.655359
 H   -0.253247    2.131217    1.739111
 H   -0.187481    4.478626    0.410932
 H    6.401546   -1.439904    1.365257
 H    6.431448    0.126082    0.811141
}
set optking {
  frozen_dihedral = ("
    1 2 3 4
    10 2 3 4
    1 2 10 11
    1 2 10 12
    3 2 10 11
    16 4 3 2
    18 20 32 35
  ")
}
set {
  geom_maxiter 400
  g_convergence GAU_LOOSE
  dynamic_level 1
}
memory 8.333333333333334GB
set_num_threads(1)
psi4_io.set_default_path("/scratch/bdw2292/Psi4-7_1_Index_0_GrowFragment_0-farH_in17")
for _ in range(1):
  try:
    set opt_coordinates both
    optimize('wb97x-d/6-311G')
    break
  except OptimizationConvergenceError:
    break
  else:
    try:
      set opt_coordinates cartesian
      optimize('wb97x-d/6-311G')
      break
    except OptimizationConvergenceError:
      pass
clean()
--------------------------------------------------------------------------

    Molecular point group: c1
  Charge       = 0
  Multiplicity = 1
  Basis Set: 6-311G
    Blend: 6-311G
  Basis Set: (6-311G AUX)
    Blend: CC-PVTZ-JKFIT
  @DF-RKS Final Energy:  -895.89924006759043
    Total Energy =                       -895.8992400675903127
    Molecular point group: c1
  Basis Set: 6-311G
    Blend: 6-311G
  Basis Set: (6-311G AUX)
    Blend: CC-PVTZ-JKFIT
  Basis Set: 6-311G
    Blend: 6-311G
  Basis Set: (6-311G AUX)
    Blend: CC-PVTZ-JKFIT
  @DF-RKS Final Energy:  -895.92497814427179
    Total Energy =                       -895.9249781442719041
  Basis Set: 6-311G
    Blend: 6-311G
  Basis Set: (6-311G AUX)
    Blend: CC-PVTZ-JKFIT
  Basis Set: 6-311G
    Blend: 6-311G
  @DF-RKS Final Energy:  -895.94188965541844
    Total Energy =                       -895.9418896554185494
  @DF-RKS Final Energy:  -895.95348730915873
    Total Energy =                       -895.9534873091587315
  @DF-RKS Final Energy:  -895.96066222374111
    Total Energy =                       -895.9606622237409965
  @DF-RKS Final Energy:  -895.95348725559541
    Total Energy =                       -895.9534872555954053
  @DF-RKS Final Energy:  -895.95866249441212
    Total Energy =                       -895.9586624944121240
  @DF-RKS Final Energy:  -895.96043561874706
    Total Energy =                       -895.9604356187470557
  @DF-RKS Final Energy:  -895.96163345738535
    Total Energy =                       -895.9616334573854601
  @DF-RKS Final Energy:  -895.96241541022323
    Total Energy =                       -895.9624154102232296
  @DF-RKS Final Energy:  -895.96281868946301
    Total Energy =                       -895.9628186894631199
  @DF-RKS Final Energy:  -895.96283925065313
    Total Energy =                       -895.9628392506530190
  @DF-RKS Final Energy:  -895.96287590251086
    Total Energy =                       -895.9628759025108593
  Basis Set: (6-311G AUX)
    Blend: CC-PVTZ-JKFIT
  Basis Set: 6-311G
    Blend: 6-311G
  Basis Set: (6-311G AUX)
    Blend: CC-PVTZ-JKFIT
  @DF-RKS Final Energy:  -895.96295369567531
    Total Energy =                       -895.9629536956754237
  Basis Set: 6-311G
    Blend: 6-311G
  Basis Set: (6-311G AUX)
    Blend: CC-PVTZ-JKFIT
  Charge       = 0
  Multiplicity = 1
  Basis Set: 6-311G
    Blend: 6-311G
  Basis Set: (6-311G AUX)
    Blend: CC-PVTZ-JKFIT

    Orbital Energies [Eh]
    ---------------------

    Doubly Occupied:

       1A    -19.184831     2A    -14.483617     3A    -14.453159
       4A    -14.439468     5A    -10.374740     6A    -10.363800
       7A    -10.341474     8A    -10.340959     9A    -10.315809
      10A    -10.310133    11A    -10.301731    12A    -10.297376
      13A    -10.294896    14A    -10.294271    15A    -10.294139
      16A    -10.293873    17A    -10.292574    18A    -10.292406
      19A    -10.290992    20A    -10.283402    21A    -10.274960
      22A     -1.122182    23A     -1.076969    24A     -1.043800
      25A     -1.031066    26A     -0.975095    27A     -0.952773
      28A     -0.903460    29A     -0.871483    30A     -0.860589
      31A     -0.856126    32A     -0.838473    33A     -0.815067
      34A     -0.765205    35A     -0.733788    36A     -0.720409
      37A     -0.704471    38A     -0.703865    39A     -0.677272
      40A     -0.657801    41A     -0.642420    42A     -0.627428
      43A     -0.613062    44A     -0.604110    45A     -0.592977
      46A     -0.564961    47A     -0.556269    48A     -0.541443
      49A     -0.540900    50A     -0.528179    51A     -0.524572
      52A     -0.520867    53A     -0.517650    54A     -0.506469
      55A     -0.504416    56A     -0.495967    57A     -0.492595
      58A     -0.477958    59A     -0.471524    60A     -0.458437
      61A     -0.456410    62A     -0.437534    63A     -0.432582
      64A     -0.432363    65A     -0.394931    66A     -0.389348
      67A     -0.340901    68A     -0.339104    69A     -0.334470
      70A     -0.329657    71A     -0.309475    72A     -0.277261
      73A     -0.241039

  @DF-RKS Final Energy:  -895.96295804606234

   => Energetics <=

    Nuclear Repulsion Energy =           1529.0469540549290741
    One-Electron Energy =               -4251.1350871353261027
    Two-Electron Energy =                1913.8983577699352736
    DFT Exchange-Correlation Energy =     -87.7477993820875071
    Empirical Dispersion Energy =          -0.0253833535133180
    VV10 Nonlocal Energy =                  0.0000000000000000
    Total Energy =                       -895.9629580460623401

  Dipole Moment: [D]
     X:     3.9253      Y:    -1.0101      Z:     3.8697     Total:     5.6038

    Molecular point group: c1
  Basis Set: 6-311G
    Blend: 6-311G
  Basis Set: (6-311G AUX)
    Blend: CC-PVTZ-JKFIT

  -Total Gradient:
     Atom            X                  Y                   Z
    ------   -----------------  -----------------  -----------------
       1        0.013645683884    -0.002055398768    -0.002815286292
       2       -0.017392206239    -0.000215487738    -0.005972262251
       3        0.006352244038     0.000754961418    -0.010091873951
       4       -0.004854216542     0.007616432763     0.020183576954
       5        0.000036764172     0.000002567801    -0.000008226206
       6       -0.000247294711     0.000052268507     0.000456028301
       7       -0.000070125890     0.000060244058     0.000082795497
       8       -0.000199473071     0.000036236652     0.000258709651
       9        0.000288806539    -0.000052720127    -0.000291462696
      10        0.000170984148    -0.002414344811     0.007054110372
      11        0.000101793661    -0.000446979407     0.000699424450
      12       -0.000038743172     0.000068528772    -0.000138621826
      13       -0.000003163592    -0.000020905729    -0.000011993551
      14        0.000022719087    -0.000006086945    -0.000001576028
      15       -0.000000505371     0.000020616108     0.000023732505
      16        0.002195522838    -0.003351997122    -0.009279386086
      17        0.000000430798    -0.000009698573    -0.000094999772
      18        0.000174449316    -0.000717640900    -0.001615272618
      19        0.000029622063    -0.000029305375    -0.000007079707
      20       -0.000402484117     0.001827313180     0.003010307288
      21        0.000011508169    -0.000070814035     0.000028316086
      22        0.000110294708     0.000056440326    -0.000078242616
      23        0.000007262750    -0.000003219246     0.000004331008
      24        0.000004302157    -0.000005201727     0.000001464850
      25        0.000008973973     0.000006218094     0.000009078581
      26       -0.000001905893    -0.000003404868     0.000011425275
      27        0.000006015265    -0.000003896454     0.000005683462
      28        0.000002336565     0.000006061319     0.000015473990
      29        0.000115173698    -0.000126739442    -0.000067674401
      30       -0.000002109269     0.000010492223     0.000019338911
      31        0.000004759942    -0.000001707204    -0.000010203522
      32        0.000256299515    -0.003086963789    -0.002968747081
      33       -0.000180603306     0.000090653309     0.000049655998
      34        0.000009839694    -0.000007549391    -0.000046773523
      35       -0.000087225889     0.001944235823     0.001526582495
      36        0.000048623249     0.000063473416     0.000015025756

  **** Optimization is complete! (in 10 steps) ****
    Final optimized geometry and variables:
    Molecular point group: c1

    Geometry (in Angstrom), charge = 0, multiplicity = 1:

    C           -0.557977735177     1.355314474049    -0.299824001844
    C           -0.720626543924     0.009985050733    -0.069949091358
    N            0.241293555092    -0.801694399413     0.487463640691
    C            1.625177853524    -0.674314020831     0.774456893956
    H           -0.124647873180    -1.694789646088     0.778867413663
    C            0.240239035845     2.357815096229     0.407268756430
    N           -1.064586384687     3.435506610346    -1.073044316763
    C           -1.419114513683     2.099524552372    -1.244790345175
    C           -0.098328196420     3.574184110661    -0.072344768586
    C           -1.986642088854    -0.738269584081    -0.296999696876
    C           -3.181012455493    -0.265206301527     0.252377252184
    C           -1.984495191507    -1.944988088728    -1.003925611504
    C           -4.354269867855    -0.995572479089     0.106499129150
    C           -3.162193273660    -2.671690896148    -1.155090128488
    C           -4.347617869558    -2.199755835478    -0.596634071631
    C            2.241931695816    -1.807043384064     1.330316323492
    C            2.461127566081     0.334547370667     0.284636643862
    C            3.611531403914    -1.872109710251     1.522075082546
    C            3.835977051242     0.278409479942     0.486827261227
    C            4.438822855070    -0.808666861373     1.130041254282
    H           -1.467033534675     4.170522041803    -1.620568463970
    O           -2.252554121478     1.697149060324    -2.080685955971
    H           -3.180407152047     0.675793334782     0.784499166240
    H           -1.067731628032    -2.293650832151    -1.461607440772
    H           -5.274732210228    -0.623542349325     0.534749944519
    H           -3.156528820816    -3.595269861835    -1.717645527246
    H           -5.263482395502    -2.762652659426    -0.714822318665
    H            1.633025272391    -2.652556524025     1.630461669747
    H            2.059062198396     1.157871576708    -0.277937109556
    H            4.050019819589    -2.762165311988     1.954247587265
    H            4.451178530972     1.088538599596     0.115507037901
    N            5.815214162530    -0.876251585064     1.304551979886
    H            0.890931417364     2.181677527206     1.243381961267
    H            0.235432781102     4.547086182887     0.242356940321
    H            6.194777840661    -1.425419513659     2.051569234494
    H            6.387124159800    -0.122236970633     0.974882122861

*** Psi4 exiting successfully. Buy a developer a beer!
