                               Psi4 1.3.2 release

  ==> Input File <==

--------------------------------------------------------------------------
molecule {
0 1
 C   -1.061969    2.188334    0.211607
 C   -0.484725    0.958730   -0.067007
 N    0.872310    0.753315    0.341378
 C    1.805367   -0.337976    0.487799
 H    1.067337    1.394032    1.113933
 C   -0.642192    3.469095   -0.330831
 N   -2.379821    3.849473    1.058825
 C   -2.229960    2.471483    1.120549
 C   -1.449908    4.423468    0.203493
 C   -1.237769   -0.179292   -0.661310
 C   -2.463416   -0.615730   -0.099007
 C   -0.724763   -0.868376   -1.790044
 C   -3.155847   -1.700069   -0.652075
 C   -1.418746   -1.953142   -2.340255
 C   -2.639201   -2.375477   -1.776231
 C    3.099788   -0.032389    0.993984
 C    1.506172   -1.707367    0.270280
 C    4.058263   -1.033546    1.199768
 C    2.472281   -2.704508    0.467897
 C    3.774518   -2.390325    0.921962
 H   -3.093004    4.329688    1.588926
 O   -2.956019    1.738399    1.801832
 H   -2.869560   -0.107714    0.778129
 H    0.221380   -0.547052   -2.228598
 H   -4.097036   -2.019667   -0.202738
 H   -1.004347   -2.470821   -3.206512
 H   -3.180023   -3.220645   -2.205608
 H    3.373274    1.000987    1.223149
 H    0.512962   -2.029423   -0.030427
 H    5.040039   -0.745441    1.582388
 H    2.196791   -3.743746    0.273980
 N    4.754583   -3.407096    1.123293
 H    0.173330    3.628096   -1.021750
 H   -1.447839    5.494584    0.054949
 H    5.714025   -3.075788    1.018151
 H    4.619485   -4.225442    0.528754
}
set optking {
  frozen_dihedral = ("
    1 2 3 4
    10 2 3 4
    1 2 10 11
    1 2 10 12
    3 2 10 11
    16 4 3 2
    18 20 32 35
  ")
}
set {
  geom_maxiter 400
  g_convergence GAU_LOOSE
  dynamic_level 1
}
memory 8.333333333333334GB
set_num_threads(1)
psi4_io.set_default_path("/scratch/bdw2292/Psi4-7_1_Index_0_GrowFragment_0-farH_in17")
for _ in range(1):
  try:
    set opt_coordinates both
    optimize('wb97x-d/6-311G')
    break
  except OptimizationConvergenceError:
    break
  else:
    try:
      set opt_coordinates cartesian
      optimize('wb97x-d/6-311G')
      break
    except OptimizationConvergenceError:
      pass
clean()
--------------------------------------------------------------------------

    Molecular point group: c1
  Charge       = 0
  Multiplicity = 1
  Basis Set: 6-311G
    Blend: 6-311G
  Basis Set: (6-311G AUX)
    Blend: CC-PVTZ-JKFIT
  @DF-RKS Final Energy:  -895.91021643587567
    Total Energy =                       -895.9102164358757818
    Molecular point group: c1
  Basis Set: 6-311G
    Blend: 6-311G
  Basis Set: (6-311G AUX)
    Blend: CC-PVTZ-JKFIT
  Basis Set: 6-311G
    Blend: 6-311G
  Basis Set: (6-311G AUX)
    Blend: CC-PVTZ-JKFIT
  @DF-RKS Final Energy:  -895.93362274209790
    Total Energy =                       -895.9336227420978958
  Basis Set: 6-311G
    Blend: 6-311G
  Basis Set: (6-311G AUX)
    Blend: CC-PVTZ-JKFIT
  Basis Set: 6-311G
    Blend: 6-311G
  @DF-RKS Final Energy:  -895.94522351645765
    Total Energy =                       -895.9452235164576450
  @DF-RKS Final Energy:  -895.95356323293299
    Total Energy =                       -895.9535632329329928
  @DF-RKS Final Energy:  -895.95706357561210
    Total Energy =                       -895.9570635756120964
  @DF-RKS Final Energy:  -895.96131429458922
    Total Energy =                       -895.9613142945891013
  @DF-RKS Final Energy:  -895.96406891366576
    Total Energy =                       -895.9640689136658693
  @DF-RKS Final Energy:  -895.96533629400653
    Total Energy =                       -895.9653362940066472
  @DF-RKS Final Energy:  -895.96618211652333
    Total Energy =                       -895.9661821165232141
  @DF-RKS Final Energy:  -895.96677511911480
    Total Energy =                       -895.9667751191149137
  @DF-RKS Final Energy:  -895.96681947893455
    Total Energy =                       -895.9668194789345534
  Basis Set: (6-311G AUX)
    Blend: CC-PVTZ-JKFIT
  Basis Set: 6-311G
    Blend: 6-311G
  Basis Set: (6-311G AUX)
    Blend: CC-PVTZ-JKFIT
  @DF-RKS Final Energy:  -895.96684402672497
    Total Energy =                       -895.9668440267248570
  Basis Set: 6-311G
    Blend: 6-311G
  Basis Set: (6-311G AUX)
    Blend: CC-PVTZ-JKFIT
  Charge       = 0
  Multiplicity = 1
  Basis Set: 6-311G
    Blend: 6-311G
  Basis Set: (6-311G AUX)
    Blend: CC-PVTZ-JKFIT

    Orbital Energies [Eh]
    ---------------------

    Doubly Occupied:

       1A    -19.188905     2A    -14.480853     3A    -14.456914
       4A    -14.437496     5A    -10.380197     6A    -10.365156
       7A    -10.342277     8A    -10.339517     9A    -10.321402
      10A    -10.307208    11A    -10.300072    12A    -10.294421
      13A    -10.293282    14A    -10.293006    15A    -10.292636
      16A    -10.292216    17A    -10.291339    18A    -10.290599
      19A    -10.289133    20A    -10.286710    21A    -10.280379
      22A     -1.126086    23A     -1.075651    24A     -1.047377
      25A     -1.029074    26A     -0.972385    27A     -0.954583
      28A     -0.903877    29A     -0.870736    30A     -0.859563
      31A     -0.853217    32A     -0.843682    33A     -0.812081
      34A     -0.767164    35A     -0.732646    36A     -0.721877
      37A     -0.708736    38A     -0.692759    39A     -0.680825
      40A     -0.663224    41A     -0.640867    42A     -0.623774
      43A     -0.615151    44A     -0.602902    45A     -0.596170
      46A     -0.564126    47A     -0.554276    48A     -0.545396
      49A     -0.533903    50A     -0.530996    51A     -0.525567
      52A     -0.520123    53A     -0.516977    54A     -0.512475
      55A     -0.508267    56A     -0.497773    57A     -0.486759
      58A     -0.486048    59A     -0.470597    60A     -0.461015
      61A     -0.453971    62A     -0.435037    63A     -0.432104
      64A     -0.428694    65A     -0.397218    66A     -0.394237
      67A     -0.341760    68A     -0.340853    69A     -0.333964
      70A     -0.326752    71A     -0.310000    72A     -0.279189
      73A     -0.240363

  @DF-RKS Final Energy:  -895.96700151306595

   => Energetics <=

    Nuclear Repulsion Energy =           1537.1539867322928785
    One-Electron Energy =               -4267.3143572440058051
    Two-Electron Energy =                1921.9678613073951965
    DFT Exchange-Correlation Energy =     -87.7486032003351113
    Empirical Dispersion Energy =          -0.0258891084129298
    VV10 Nonlocal Energy =                  0.0000000000000000
    Total Energy =                       -895.9670015130659522

  Dipole Moment: [D]
     X:     5.0774      Y:    -0.5492      Z:     0.9545     Total:     5.1954

    Molecular point group: c1
  Basis Set: 6-311G
    Blend: 6-311G
  Basis Set: (6-311G AUX)
    Blend: CC-PVTZ-JKFIT

  -Total Gradient:
     Atom            X                  Y                   Z
    ------   -----------------  -----------------  -----------------
       1        0.002620573229     0.001541602645     0.004106258812
       2       -0.001243369971    -0.000911518956    -0.013676756444
       3       -0.001312671502     0.000147485581     0.010119498585
       4        0.002164505802     0.001143803269    -0.013526349603
       5        0.000004507495     0.000237615321    -0.000215408926
       6        0.000127137722    -0.000467048145    -0.000173781594
       7       -0.000654469658    -0.000198869825     0.000172922668
       8        0.000352042819     0.000249600500    -0.000218593955
       9        0.000006883394     0.000385346545    -0.000186941072
      10       -0.003949645140     0.000925104919     0.004576794455
      11       -0.000522331408    -0.000079756326    -0.000518851224
      12        0.003269815397    -0.002764139493     0.002746639106
      13        0.000032860425     0.000298365344     0.000220426373
      14        0.000009830595     0.000011300885     0.000071442593
      15        0.000080970127    -0.000085573326    -0.000195659357
      16       -0.000883431083    -0.000579582588     0.006038327431
      17        0.000027751005     0.000147107490    -0.000079830598
      18       -0.000342046790    -0.000027390418     0.001756686748
      19        0.000050342323    -0.000023347117     0.000057257082
      20        0.000417300585    -0.000228928872    -0.003512590142
      21       -0.000179014343     0.000029989428     0.000046669305
      22       -0.000596897962    -0.000494671634    -0.000004075372
      23       -0.000008027794     0.000074984090     0.000099636329
      24       -0.000004426968     0.000003465219    -0.000012825384
      25       -0.000010138379    -0.000017034504     0.000003743484
      26       -0.000007417220    -0.000025061765    -0.000054077814
      27        0.000010429393     0.000026888610     0.000007181043
      28       -0.000022247570    -0.000015116570    -0.000004963725
      29       -0.000048411964     0.000000388781    -0.000029689526
      30        0.000007665338    -0.000013461923     0.000007199878
      31        0.000016347244     0.000020636361     0.000002031742
      32        0.000148570545     0.001107339006     0.003624197068
      33        0.000620300836     0.000039529674     0.000508206850
      34        0.000045888253     0.000433802122     0.000044995522
      35       -0.000234393947    -0.000877370439    -0.002195249865
      36        0.000033380026     0.000033100769     0.000164076958

  **** Optimization is complete! (in 13 steps) ****
    Final optimized geometry and variables:
    Molecular point group: c1

    Geometry (in Angstrom), charge = 0, multiplicity = 1:

    C           -1.253523972709     1.957346789451     0.210998302378
    C           -0.541426522664     0.809103310513    -0.056334233185
    N            0.821889660994     0.862410047546     0.129887863459
    C            1.872102006950    -0.091954575559     0.199503548397
    H            1.166446241990     1.803854609225     0.220605687446
    C           -0.746973237568     3.209438197540     0.774299971424
    N           -2.899496305970     3.524963225242     0.219938163839
    C           -2.669795861561     2.196122521440    -0.138095443372
    C           -1.754853110783     4.109413595198     0.767178521215
    C           -1.193941220677    -0.471712732779    -0.417524912405
    C           -2.219066992515    -0.990093154740     0.374736616623
    C           -0.767655011155    -1.187018612462    -1.542640583666
    C           -2.804624234729    -2.209296914936     0.051478379699
    C           -1.361920283519    -2.399251582481    -1.873067404248
    C           -2.379173347458    -2.915731243271    -1.071577074736
    C            3.150052410069     0.430336125109     0.452844974371
    C            1.730264333229    -1.483296384892     0.214100925787
    C            4.254247589490    -0.389156510592     0.621304023605
    C            2.841408771072    -2.306824166754     0.364213809622
    C            4.125829546142    -1.783750218148     0.552316231713
    H           -3.789293651892     3.964674672309     0.086830976937
    O           -3.537353334127     1.461075740622    -0.651462506230
    H           -2.557927331642    -0.432518421878     1.235497690995
    H            0.027455914004    -0.787902041589    -2.158254646652
    H           -3.600815569905    -2.600703877405     0.669149958308
    H           -1.033274509072    -2.937968776014    -2.751262408873
    H           -2.842012958662    -3.859888916969    -1.324935849371
    H            3.283737677962     1.504247653476     0.519093144357
    H            0.764586161326    -1.945782337509     0.119864914926
    H            5.220977303731     0.051358805094     0.828048072735
    H            2.698532840692    -3.380081727117     0.348145542646
    N            5.227090699451    -2.611110688027     0.737916805676
    H            0.226017360154     3.386250558717     1.204362027842
    H           -1.770954156311     5.121848567314     1.131871674071
    H            6.142858919939    -2.282788768089     0.499394605250
    H            5.098761768841    -3.604660791808     0.744362547481

*** Psi4 exiting successfully. Buy a developer a beer!
