                               Psi4 1.3.2 release

  ==> Input File <==

--------------------------------------------------------------------------
molecule {
0 1
 C   -0.944553    1.987840    0.167507
 C   -0.662040    0.634826    0.182843
 N    0.475684    0.266365    0.952574
 C    1.660320   -0.538355    0.813542
 H    0.134762    0.149519    1.910337
 C   -0.157132    3.024364   -0.477613
 N   -1.918182    4.020637    0.526038
 C   -2.112579    2.678941    0.817959
 C   -0.774338    4.211964   -0.237629
 C   -1.515644   -0.427038   -0.440955
 C   -2.899814   -0.414601   -0.104766
 C   -1.057909   -1.476657   -1.276120
 C   -3.782832   -1.372998   -0.616033
 C   -1.941483   -2.437917   -1.785201
 C   -3.310512   -2.390553   -1.464322
 C    2.523819   -0.680077    1.933245
 C    2.120883   -1.047400   -0.424713
 C    3.708552   -1.423778    1.846380
 C    3.300899   -1.799277   -0.508293
 C    4.117969   -2.013191    0.627103
 H   -2.557017    4.733459    0.848031
 O   -3.069598    2.249944    1.473778
 H   -3.289120    0.350737    0.570665
 H   -0.011251   -1.556896   -1.542484
 H   -4.839393   -1.324767   -0.348414
 H   -1.558650   -3.226761   -2.434799
 H   -3.997530   -3.137482   -1.865409
 H    2.267463   -0.219507    2.890730
 H    1.584502   -0.829409   -1.345937
 H    4.317604   -1.542783    2.745279
 H    3.592708   -2.208628   -1.478116
 N    5.311371   -2.789423    0.545294
 H    0.755791    2.873418   -1.035490
 H   -0.497809    5.211555   -0.543881
 H    6.026701   -2.514384    1.218999
 H    5.724117   -2.813037   -0.387495
}
set optking {
  frozen_dihedral = ("
    1 2 3 4
    10 2 3 4
    1 2 10 11
    1 2 10 12
    3 2 10 11
    16 4 3 2
    18 20 32 35
  ")
}
set {
  geom_maxiter 400
  g_convergence GAU_LOOSE
  dynamic_level 1
}
memory 8.333333333333334GB
set_num_threads(1)
psi4_io.set_default_path("/scratch/bdw2292/Psi4-7_1_Index_0_GrowFragment_0-farH_in17")
for _ in range(1):
  try:
    set opt_coordinates both
    optimize('wb97x-d/6-311G')
    break
  except OptimizationConvergenceError:
    break
  else:
    try:
      set opt_coordinates cartesian
      optimize('wb97x-d/6-311G')
      break
    except OptimizationConvergenceError:
      pass
clean()
--------------------------------------------------------------------------

    Molecular point group: c1
  Charge       = 0
  Multiplicity = 1
  Basis Set: 6-311G
    Blend: 6-311G
  Basis Set: (6-311G AUX)
    Blend: CC-PVTZ-JKFIT
  @DF-RKS Final Energy:  -895.87481828868590
    Total Energy =                       -895.8748182886859013
    Molecular point group: c1
  Basis Set: 6-311G
    Blend: 6-311G
  Basis Set: (6-311G AUX)
    Blend: CC-PVTZ-JKFIT
  Basis Set: 6-311G
    Blend: 6-311G
  Basis Set: (6-311G AUX)
    Blend: CC-PVTZ-JKFIT
  @DF-RKS Final Energy:  -895.90141308048760
    Total Energy =                       -895.9014130804877141
  Basis Set: 6-311G
    Blend: 6-311G
  Basis Set: (6-311G AUX)
    Blend: CC-PVTZ-JKFIT
  Basis Set: 6-311G
    Blend: 6-311G
  @DF-RKS Final Energy:  -895.92398876470793
    Total Energy =                       -895.9239887647078149
  @DF-RKS Final Energy:  -895.57968666243983
    Total Energy =                       -895.5796866624397126
  @DF-RKS Final Energy:  -895.48236821246917
    Total Energy =                       -895.4823682124692823
  @DF-RKS Final Energy:  -895.57968667989383
    Total Energy =                       -895.5796866798937117
  @DF-RKS Final Energy:  -895.66277992278958
    Total Energy =                       -895.6627799227894684
  @DF-RKS Final Energy:  -895.73658787457794
    Total Energy =                       -895.7365878745778218
  @DF-RKS Final Energy:  -895.79970559806213
    Total Energy =                       -895.7997055980620189
  @DF-RKS Final Energy:  -895.85088307352783
    Total Energy =                       -895.8508830735278252
  @DF-RKS Final Energy:  -895.88935436026918
    Total Energy =                       -895.8893543602690670
  @DF-RKS Final Energy:  -895.91465122240845
    Total Energy =                       -895.9146512224083381
  @DF-RKS Final Energy:  -895.92789731327241
    Total Energy =                       -895.9278973132724104
  @DF-RKS Final Energy:  -895.93387612937772
    Total Energy =                       -895.9338761293777225
  @DF-RKS Final Energy:  -895.93764573978103
    Total Energy =                       -895.9376457397809190
  @DF-RKS Final Energy:  -895.94062541263065
    Total Energy =                       -895.9406254126307658
  @DF-RKS Final Energy:  -895.94303154746365
    Total Energy =                       -895.9430315474637609
  @DF-RKS Final Energy:  -895.94498638248945
    Total Energy =                       -895.9449863824894464
  @DF-RKS Final Energy:  -895.94657035249941
    Total Energy =                       -895.9465703524994069
  @DF-RKS Final Energy:  -895.94781173456499
    Total Energy =                       -895.9478117345649935
  @DF-RKS Final Energy:  -895.94872347307819
    Total Energy =                       -895.9487234730780756
  @DF-RKS Final Energy:  -895.94930353235213
    Total Energy =                       -895.9493035323522463
  @DF-RKS Final Energy:  -895.94956170867556
    Total Energy =                       -895.9495617086755601
  @DF-RKS Final Energy:  -895.94913136132163
    Total Energy =                       -895.9491313613216334
  @DF-RKS Final Energy:  -895.94951668499459
    Total Energy =                       -895.9495166849947054
  Basis Set: (6-311G AUX)
    Blend: CC-PVTZ-JKFIT
  Basis Set: 6-311G
    Blend: 6-311G
  Basis Set: (6-311G AUX)
    Blend: CC-PVTZ-JKFIT
  @DF-RKS Final Energy:  -895.94956177093798
    Total Energy =                       -895.9495617709379758
  Basis Set: 6-311G
    Blend: 6-311G
  Basis Set: (6-311G AUX)
    Blend: CC-PVTZ-JKFIT
  Charge       = 0
  Multiplicity = 1
  Basis Set: 6-311G
    Blend: 6-311G
  Basis Set: (6-311G AUX)
    Blend: CC-PVTZ-JKFIT

    Orbital Energies [Eh]
    ---------------------

    Doubly Occupied:

       1A    -19.202594     2A    -14.466536     3A    -14.464535
       4A    -14.438085     5A    -10.391672     6A    -10.365814
       7A    -10.340102     8A    -10.339437     9A    -10.328651
      10A    -10.306355    11A    -10.298769    12A    -10.298137
      13A    -10.296353    14A    -10.293090    15A    -10.292686
      16A    -10.287991    17A    -10.285475    18A    -10.284508
      19A    -10.284151    20A    -10.284099    21A    -10.281143
      22A     -1.139220    23A     -1.067024    24A     -1.056346
      25A     -1.029594    26A     -0.966336    27A     -0.952283
      28A     -0.905353    29A     -0.869210    30A     -0.860704
      31A     -0.846237    32A     -0.840536    33A     -0.816172
      34A     -0.767798    35A     -0.732010    36A     -0.719016
      37A     -0.702809    38A     -0.693576    39A     -0.684166
      40A     -0.658080    41A     -0.641489    42A     -0.622374
      43A     -0.613658    44A     -0.605094    45A     -0.601393
      46A     -0.564290    47A     -0.552554    48A     -0.543760
      49A     -0.541470    50A     -0.535213    51A     -0.522368
      52A     -0.521327    53A     -0.517194    54A     -0.516064
      55A     -0.505712    56A     -0.494490    57A     -0.488028
      58A     -0.483877    59A     -0.472961    60A     -0.458124
      61A     -0.445631    62A     -0.433324    63A     -0.429508
      64A     -0.420514    65A     -0.405125    66A     -0.392207
      67A     -0.340986    68A     -0.338713    69A     -0.336492
      70A     -0.325251    71A     -0.312402    72A     -0.280960
      73A     -0.248276

  @DF-RKS Final Energy:  -895.94957959583701

   => Energetics <=

    Nuclear Repulsion Energy =           1527.5492883296801665
    One-Electron Energy =               -4248.0740153203487353
    Two-Electron Energy =                1912.3423603583109980
    DFT Exchange-Correlation Energy =     -87.7420375343229324
    Empirical Dispersion Energy =          -0.0251754291565445
    VV10 Nonlocal Energy =                  0.0000000000000000
    Total Energy =                       -895.9495795958370081

  Dipole Moment: [D]
     X:     4.6386      Y:    -2.6881      Z:    -1.0531     Total:     5.4637

    Molecular point group: c1
  Basis Set: 6-311G
    Blend: 6-311G
  Basis Set: (6-311G AUX)
    Blend: CC-PVTZ-JKFIT

  -Total Gradient:
     Atom            X                  Y                   Z
    ------   -----------------  -----------------  -----------------
       1        0.003217570055    -0.001978501094    -0.000403041312
       2       -0.004711784199     0.001857025239     0.012772761416
       3        0.003163375446     0.002035169079    -0.004721351353
       4       -0.016015014897    -0.008812176141     0.000463342220
       5       -0.000204061050    -0.000240051487     0.000325903725
       6       -0.000023657777    -0.000014507799     0.000051744672
       7        0.000221932334     0.000204875894    -0.000396860745
       8       -0.000497153833    -0.000214636720     0.000669943367
       9       -0.000044729030    -0.000195348083     0.000146394236
      10        0.003961482588    -0.000302651574    -0.008499742721
      11        0.000225095945     0.001696803936    -0.000322636084
      12       -0.000106570187    -0.000288146527     0.000042646443
      13       -0.000051719256    -0.000015540371    -0.000006732131
      14       -0.000038155812    -0.000022173419     0.000008632049
      15       -0.000047402205     0.000012836353    -0.000008854016
      16        0.010614342187     0.005926734142    -0.000053472473
      17       -0.000034624166    -0.000025577120    -0.000117889902
      18       -0.001677081599    -0.000750434856    -0.000341197655
      19       -0.000087086886    -0.000008487710     0.000014031158
      20        0.003271204804     0.001913789135     0.000351756439
      21       -0.000054525700    -0.000004189765     0.000043904674
      22        0.000174823334     0.000297236312     0.000078844128
      23        0.000023960384     0.000103222847    -0.000042460888
      24       -0.000054977093    -0.000000413943    -0.000014281516
      25       -0.000014715558    -0.000008049717    -0.000003372680
      26       -0.000007043113    -0.000021827065     0.000001931600
      27       -0.000055699036     0.000030903323    -0.000013420893
      28        0.000074156680    -0.000017610481     0.000009331424
      29       -0.000005110902     0.000026971245     0.000029865600
      30        0.000028691222     0.000015627092     0.000028691479
      31       -0.000044388171     0.000005763760    -0.000013501017
      32       -0.003427455703    -0.003170926473     0.000385692134
      33        0.000008542174    -0.000092927039    -0.000138216745
      34        0.000012586749    -0.000067412398     0.000043146038
      35        0.001766271121     0.001893936839    -0.000441594526
      36        0.000145542089     0.000113618094     0.000003999822

  **** Optimization is complete! (in 2 steps) ****
    Final optimized geometry and variables:
    Molecular point group: c1

    Geometry (in Angstrom), charge = 0, multiplicity = 1:

    C            0.421847278292     1.268753269641     1.650860732889
    C           -0.145250598236     0.359114943891     0.794665776310
    N            0.584375305217    -0.820946833451     0.605593172379
    C            0.977037476166    -1.536732831138    -0.549096666663
    H            1.126681581885    -1.071070723206     1.415746407888
    C            1.769573620910     1.173489858444     2.224091292826
    N            0.877436795349     3.111676799809     2.916880767049
    C           -0.133350502225     2.564165367190     2.132001563862
    C            1.997568932299     2.279279019925     2.960467368806
    C           -1.499578110388     0.503206840150     0.169656251274
    C           -2.552190699391     0.790572703041     1.056344897275
    C           -1.825000863349     0.316058736392    -1.179129476525
    C           -3.865247354555     0.891105585811     0.617266474032
    C           -3.142362313328     0.423304548640    -1.620783980226
    C           -4.169000004368     0.710400177654    -0.729008582287
    C            1.651576665214    -2.751604827768    -0.358910060124
    C            1.042904814217    -0.965952430646    -1.823772644319
    C            2.207206955927    -3.446955290094    -1.421637501588
    C            1.595564721059    -1.657269892502    -2.895924843141
    C            2.173252019111    -2.920364384074    -2.721250093306
    H            0.772838416612     3.997747584450     3.371443035256
    O           -1.223097890954     3.131680011723     1.934539347993
    H           -2.337457005049     0.941184312163     2.101697269393
    H           -1.074772551734     0.089879468716    -1.911150898686
    H           -4.647010136346     1.117043019865     1.329051758389
    H           -3.357777138995     0.279273766837    -2.670881977092
    H           -5.189731770737     0.793096656125    -1.077059071565
    H            1.695209294760    -3.184084917207     0.633785525592
    H            0.739306702109     0.057872513417    -1.972350610603
    H            2.675582637574    -4.406614810551    -1.244381059998
    H            1.621849009332    -1.186455898868    -3.870802727935
    N            2.682044976237    -3.640723215053    -3.797066166592
    H            2.495321172165     0.401973495990     2.035540965995
    H            2.879145464436     2.568411522528     3.504795747301
    H            3.427318343164    -4.293473478852    -3.645133875903
    H            2.628445468407    -3.242683973464    -4.715496394110

*** Psi4 exiting successfully. Buy a developer a beer!
