                               Psi4 1.3.2 release

  ==> Input File <==

--------------------------------------------------------------------------
molecule {
0 1
 C   -1.010004    2.090792    0.176065
 C   -0.600483    0.777518    0.004155
 N    0.673458    0.454915    0.564426
 C    1.774162   -0.476697    0.585069
 H    0.552490    0.689393    1.553919
 C   -0.372431    3.266207   -0.392291
 N   -2.127680    3.967724    0.842072
 C   -2.176955    2.589425    0.987301
 C   -1.070645    4.353893    0.029551
 C   -1.457427   -0.279960   -0.603120
 C   -2.775884   -0.479591   -0.115890
 C   -0.989067   -1.130142   -1.631846
 C   -3.585214   -1.499161   -0.631160
 C   -1.794071   -2.156837   -2.140287
 C   -3.097916   -2.349340   -1.643044
 C    2.822535   -0.210995    1.512506
 C    1.882057   -1.665624   -0.177245
 C    3.929150   -1.061488    1.631341
 C    2.998957   -2.507298   -0.065465
 C    4.053012   -2.220176    0.832198
 H   -2.800403    4.573375    1.290093
 O   -3.034976    2.004533    1.658447
 H   -3.163205    0.156610    0.682485
 H    0.001149   -0.957602   -2.055784
 H   -4.593919   -1.632180   -0.237985
 H   -1.406623   -2.801387   -2.930790
 H   -3.726241   -3.148151   -2.040502
 H    2.783831    0.677653    2.148360
 H    1.096874   -1.977187   -0.855418
 H    4.704204   -0.810919    2.358920
 H    3.038823   -3.407527   -0.683243
 N    5.183800   -3.081799    0.948283
 H    0.504241    3.268180   -1.023892
 H   -0.907605    5.403346   -0.173232
 H    6.032535   -2.602901    1.251212
 H    5.385228   -3.607950    0.097424
}
set optking {
  frozen_dihedral = ("
    1 2 3 4
    10 2 3 4
    1 2 10 11
    1 2 10 12
    3 2 10 11
    16 4 3 2
    18 20 32 35
  ")
}
set {
  geom_maxiter 400
  g_convergence GAU_LOOSE
  dynamic_level 1
}
memory 8.333333333333334GB
set_num_threads(1)
psi4_io.set_default_path("/scratch/bdw2292/Psi4-7_1_Index_0_GrowFragment_0-farH_in17")
for _ in range(1):
  try:
    set opt_coordinates both
    optimize('wb97x-d/6-311G')
    break
  except OptimizationConvergenceError:
    break
  else:
    try:
      set opt_coordinates cartesian
      optimize('wb97x-d/6-311G')
      break
    except OptimizationConvergenceError:
      pass
clean()
--------------------------------------------------------------------------

    Molecular point group: c1
  Charge       = 0
  Multiplicity = 1
  Basis Set: 6-311G
    Blend: 6-311G
  Basis Set: (6-311G AUX)
    Blend: CC-PVTZ-JKFIT
  @DF-RKS Final Energy:  -895.88680144500643
    Total Energy =                       -895.8868014450064265
    Molecular point group: c1
  Basis Set: 6-311G
    Blend: 6-311G
  Basis Set: (6-311G AUX)
    Blend: CC-PVTZ-JKFIT
  Basis Set: 6-311G
    Blend: 6-311G
  Basis Set: (6-311G AUX)
    Blend: CC-PVTZ-JKFIT
  @DF-RKS Final Energy:  -895.91021741719521
    Total Energy =                       -895.9102174171952129
  Basis Set: 6-311G
    Blend: 6-311G
  Basis Set: (6-311G AUX)
    Blend: CC-PVTZ-JKFIT
  Basis Set: 6-311G
    Blend: 6-311G
  @DF-RKS Final Energy:  -895.92607360294107
    Total Energy =                       -895.9260736029410737
  @DF-RKS Final Energy:  -895.93689105316071
    Total Energy =                       -895.9368910531605934
  @DF-RKS Final Energy:  -895.94452309862743
    Total Energy =                       -895.9445230986275419
  @DF-RKS Final Energy:  -895.94801577527346
    Total Energy =                       -895.9480157752734613
  @DF-RKS Final Energy:  -895.94979093252391
    Total Energy =                       -895.9497909325239107
  @DF-RKS Final Energy:  -895.94998992502701
    Total Energy =                       -895.9499899250268982
  @DF-RKS Final Energy:  -895.95102885634981
    Total Energy =                       -895.9510288563498079
  @DF-RKS Final Energy:  -895.95125384527512
    Total Energy =                       -895.9512538452751187
  @DF-RKS Final Energy:  -895.95133607817434
    Total Energy =                       -895.9513360781744495
  @DF-RKS Final Energy:  -895.95141450368658
    Total Energy =                       -895.9514145036865784
  Basis Set: (6-311G AUX)
    Blend: CC-PVTZ-JKFIT
  Basis Set: 6-311G
    Blend: 6-311G
  Basis Set: (6-311G AUX)
    Blend: CC-PVTZ-JKFIT
  @DF-RKS Final Energy:  -895.95144373360176
    Total Energy =                       -895.9514437336016499
  Basis Set: 6-311G
    Blend: 6-311G
  Basis Set: (6-311G AUX)
    Blend: CC-PVTZ-JKFIT
  Charge       = 0
  Multiplicity = 1
  Basis Set: 6-311G
    Blend: 6-311G
  Basis Set: (6-311G AUX)
    Blend: CC-PVTZ-JKFIT

    Orbital Energies [Eh]
    ---------------------

    Doubly Occupied:

       1A    -19.190482     2A    -14.478624     3A    -14.458516
       4A    -14.438414     5A    -10.381962     6A    -10.369783
       7A    -10.344994     8A    -10.340361     9A    -10.323220
      10A    -10.309676    11A    -10.300734    12A    -10.295481
      13A    -10.294081    14A    -10.293604    15A    -10.291857
      16A    -10.291501    17A    -10.291178    18A    -10.290713
      19A    -10.289669    20A    -10.286989    21A    -10.283093
      22A     -1.128511    23A     -1.073425    24A     -1.049906
      25A     -1.030082    26A     -0.972450    27A     -0.955608
      28A     -0.904977    29A     -0.871591    30A     -0.861183
      31A     -0.852803    32A     -0.844814    33A     -0.813641
      34A     -0.768366    35A     -0.732894    36A     -0.724738
      37A     -0.708282    38A     -0.692706    39A     -0.684119
      40A     -0.661725    41A     -0.643289    42A     -0.622975
      43A     -0.616385    44A     -0.603602    45A     -0.597993
      46A     -0.565763    47A     -0.550913    48A     -0.545875
      49A     -0.540143    50A     -0.534484    51A     -0.523192
      52A     -0.519176    53A     -0.518810    54A     -0.510607
      55A     -0.509045    56A     -0.498141    57A     -0.489027
      58A     -0.486970    59A     -0.471061    60A     -0.463586
      61A     -0.453256    62A     -0.435672    63A     -0.431862
      64A     -0.428931    65A     -0.398708    66A     -0.395751
      67A     -0.341101    68A     -0.339252    69A     -0.335650
      70A     -0.328640    71A     -0.309538    72A     -0.280738
      73A     -0.241168

  @DF-RKS Final Energy:  -895.95145398646866

   => Energetics <=

    Nuclear Repulsion Energy =           1524.9232008802305245
    One-Electron Energy =               -4242.7001321173374890
    Two-Electron Energy =                1909.5998887302234834
    DFT Exchange-Correlation Energy =     -87.7493865115007310
    Empirical Dispersion Energy =          -0.0250249680844836
    VV10 Nonlocal Energy =                  0.0000000000000000
    Total Energy =                       -895.9514539864686640

  Dipole Moment: [D]
     X:     5.0250      Y:    -1.5294      Z:    -0.2868     Total:     5.2605

    Molecular point group: c1
  Basis Set: 6-311G
    Blend: 6-311G
  Basis Set: (6-311G AUX)
    Blend: CC-PVTZ-JKFIT

  -Total Gradient:
     Atom            X                  Y                   Z
    ------   -----------------  -----------------  -----------------
       1        0.008510630788    -0.000803200519     0.002796351625
       2       -0.010356406794    -0.000425546822    -0.002814027176
       3       -0.002685895910    -0.005536511292     0.006043985346
       4        0.005644075397     0.012792095890    -0.011052409243
       5        0.000161321242     0.000119688149     0.000077581269
       6       -0.000685524674     0.000217558749    -0.000134373164
       7        0.000247479808    -0.000406093331     0.000216210524
       8        0.001183335147     0.000151974068     0.000589149312
       9       -0.000221152700    -0.000091923286    -0.000496441567
      10       -0.002477368925     0.004218324492    -0.001239767503
      11       -0.001871443062     0.003357569603    -0.001065994635
      12        0.004312613185    -0.009319984435     0.004042977583
      13        0.000081184883    -0.000025538080    -0.000039051174
      14        0.000010941270    -0.000141182164    -0.000129992580
      15        0.000056816694     0.000019622169     0.000116081546
      16       -0.001825580811    -0.004220740102     0.003458718473
      17        0.000029254167    -0.000097631364     0.000017453892
      18       -0.000743804143    -0.001175673654     0.001170098267
      19       -0.000044362734     0.000054552277     0.000000852770
      20        0.001017774131     0.002053544982    -0.002398454584
      21       -0.000046436166     0.000073131033     0.000007166051
      22       -0.000384707143    -0.000190539469    -0.000410212194
      23       -0.000007035932    -0.000004349285     0.000004131727
      24        0.000021753006    -0.000100781406    -0.000070302163
      25        0.000011816613     0.000046258900     0.000010750733
      26        0.000012179679    -0.000032614369     0.000004066109
      27        0.000028573390     0.000017055274    -0.000044693051
      28        0.000005176642     0.000039980938    -0.000031310819
      29        0.000016485183     0.000062369223     0.000017342016
      30       -0.000014457973     0.000000041890    -0.000041238872
      31        0.000045105758     0.000002753202    -0.000006815900
      32       -0.000206109559    -0.001927867613     0.003277885558
      33        0.000124436483    -0.000023172376    -0.000001487033
      34       -0.000020988141     0.000083341919     0.000070172608
      35       -0.000104429495     0.001025753647    -0.002165240149
      36       -0.000002784427    -0.000075804483     0.000207626777

  **** Optimization is complete! (in 14 steps) ****
    Final optimized geometry and variables:
    Molecular point group: c1

    Geometry (in Angstrom), charge = 0, multiplicity = 1:

    C           -0.583061650224     1.886712658620     1.088339498177
    C           -0.390047231097     0.691932117592     0.422322147123
    N            0.905845511223     0.203946185344     0.480626814497
    C            1.769444860442    -0.729027917257    -0.161088206388
    H            1.464916181404     0.790365956317     1.076641716187
    C            0.407910838474     2.685031292938     1.814327328277
    N           -1.517030709769     3.831930611277     1.816305277149
    C           -1.834613690063     2.674398359683     1.107910779170
    C           -0.186695050302     3.823225993907     2.230020104546
    C           -1.498290944768    -0.078337652482    -0.199299035263
    C           -2.631146674468    -0.363751197140     0.571977844291
    C           -1.440625361927    -0.563744158731    -1.507643325462
    C           -3.660374490740    -1.140684428148     0.055700829937
    C           -2.476158554599    -1.333111786318    -2.030783600650
    C           -3.583180837763    -1.636515741229    -1.243860552856
    C            3.045375114328    -0.828685170184     0.426026394763
    C            1.475663518622    -1.631613782090    -1.184941396320
    C            4.004152345343    -1.711289570681    -0.037580896709
    C            2.442199204688    -2.514256897385    -1.661313889306
    C            3.728086462369    -2.564797434725    -1.116261134658
    H           -2.187694858479     4.559117254455     1.970949077928
    O           -2.962154393404     2.464588084765     0.615691877323
    H           -2.700979533876     0.022372687512     1.576859821396
    H           -0.630610050424    -0.259991079533    -2.154006488385
    H           -4.527474546717    -1.349427948192     0.666411456440
    H           -2.421475381221    -1.680905116252    -3.053435162359
    H           -4.386963538573    -2.238394523337    -1.645504475009
    H            3.290894279592    -0.197771984617     1.273044843045
    H            0.495671597821    -1.691918581654    -1.613081369210
    H            4.968385118674    -1.758481721938     0.451648511210
    H            2.178005938899    -3.184222749332    -2.470058340356
    N            4.679163729426    -3.469556879997    -1.571417421205
    H            1.438925312744     2.445738725594     2.017593352861
    H            0.222933240379     4.639258214839     2.798649720673
    H            5.653638705491    -3.263882393934    -1.466045564100
    H            4.436295979934    -4.111802854274    -2.300809612914

*** Psi4 exiting successfully. Buy a developer a beer!
