                               Psi4 1.3.2 release

  ==> Input File <==

--------------------------------------------------------------------------
molecule {
0 1
 C   -0.620477    1.221942   -0.580677
 C   -0.750342   -0.128251   -0.336995
 N    0.382044   -0.974670   -0.165581
 C    1.784813   -0.831331    0.136077
 H    0.052746   -1.789472    0.353997
 C   -0.508247    2.279481    0.408834
 N   -0.506156    3.238790   -1.635425
 C   -0.639384    1.888767   -1.930016
 C   -0.434423    3.457190   -0.267083
 C   -2.074924   -0.785211   -0.148379
 C   -3.014835   -0.273722    0.781536
 C   -2.393584   -1.967482   -0.862879
 C   -4.242021   -0.919077    0.978812
 C   -3.620273   -2.611974   -0.660262
 C   -4.553078   -2.091126    0.259672
 C    2.576606   -2.010991    0.165308
 C    2.434092    0.396671    0.422238
 C    3.942104   -1.963066    0.476128
 C    3.802140    0.438746    0.728037
 C    4.585347   -0.738823    0.772679
 H   -0.471935    3.935749   -2.365507
 O   -0.759711    1.451768   -3.074242
 H   -2.779669    0.627299    1.349729
 H   -1.675224   -2.373713   -1.577263
 H   -4.954586   -0.509193    1.696109
 H   -3.848158   -3.520752   -1.219229
 H   -5.509989   -2.592391    0.414898
 H    2.126753   -2.981051   -0.060904
 H    1.893181    1.339826    0.415304
 H    4.509322   -2.896601    0.484513
 H    4.260582    1.408221    0.936446
 N    5.976761   -0.690891    1.084498
 H   -0.476448    2.147353    1.481058
 H   -0.332807    4.466154    0.108973
 H    6.328051   -1.545975    1.516615
 H    6.237493    0.106458    1.665613
}
set optking {
  frozen_dihedral = ("
    1 2 3 4
    10 2 3 4
    1 2 10 11
    1 2 10 12
    3 2 10 11
    16 4 3 2
    18 20 32 35
  ")
}
set {
  geom_maxiter 400
  g_convergence GAU_LOOSE
  dynamic_level 1
}
memory 8.333333333333334GB
set_num_threads(1)
psi4_io.set_default_path("/scratch/bdw2292/Psi4-7_1_Index_0_GrowFragment_0-farH_in17")
for _ in range(1):
  try:
    set opt_coordinates both
    optimize('wb97x-d/6-311G')
    break
  except OptimizationConvergenceError:
    break
  else:
    try:
      set opt_coordinates cartesian
      optimize('wb97x-d/6-311G')
      break
    except OptimizationConvergenceError:
      pass
clean()
--------------------------------------------------------------------------

    Molecular point group: c1
  Charge       = 0
  Multiplicity = 1
  Basis Set: 6-311G
    Blend: 6-311G
  Basis Set: (6-311G AUX)
    Blend: CC-PVTZ-JKFIT
  @DF-RKS Final Energy:  -895.88022917827107
    Total Energy =                       -895.8802291782710654
    Molecular point group: c1
  Basis Set: 6-311G
    Blend: 6-311G
  Basis Set: (6-311G AUX)
    Blend: CC-PVTZ-JKFIT
  Basis Set: 6-311G
    Blend: 6-311G
  Basis Set: (6-311G AUX)
    Blend: CC-PVTZ-JKFIT
  @DF-RKS Final Energy:  -895.90226696850857
    Total Energy =                       -895.9022669685084566
  Basis Set: 6-311G
    Blend: 6-311G
  Basis Set: (6-311G AUX)
    Blend: CC-PVTZ-JKFIT
  Basis Set: 6-311G
    Blend: 6-311G
  @DF-RKS Final Energy:  -895.91765847574732
    Total Energy =                       -895.9176584757473165
  @DF-RKS Final Energy:  -895.92621268800963
    Total Energy =                       -895.9262126880096275
  @DF-RKS Final Energy:  -895.93548065675350
    Total Energy =                       -895.9354806567533842
  @DF-RKS Final Energy:  -895.93657355572782
    Total Energy =                       -895.9365735557277048
  @DF-RKS Final Energy:  -895.94149379235057
    Total Energy =                       -895.9414937923506841
  @DF-RKS Final Energy:  -895.94216159023313
    Total Energy =                       -895.9421615902331268
  @DF-RKS Final Energy:  -895.94303531160995
    Total Energy =                       -895.9430353116099468
  @DF-RKS Final Energy:  -895.94358540580879
    Total Energy =                       -895.9435854058086761
  @DF-RKS Final Energy:  -895.94414345956977
    Total Energy =                       -895.9441434595698865
  @DF-RKS Final Energy:  -895.94452420467974
    Total Energy =                       -895.9445242046797375
  @DF-RKS Final Energy:  -895.94634810507443
    Total Energy =                       -895.9463481050745486
  @DF-RKS Final Energy:  -895.94362773696434
    Total Energy =                       -895.9436277369644586
  @DF-RKS Final Energy:  -895.94634814782091
    Total Energy =                       -895.9463481478209133
  @DF-RKS Final Energy:  -895.94988853496488
    Total Energy =                       -895.9498885349648845
  @DF-RKS Final Energy:  -895.95209499007126
    Total Energy =                       -895.9520949900712594
  @DF-RKS Final Energy:  -895.95407013252600
    Total Energy =                       -895.9540701325258851
  @DF-RKS Final Energy:  -895.95591734302320
    Total Energy =                       -895.9559173430232022
  @DF-RKS Final Energy:  -895.95761456672290
    Total Energy =                       -895.9576145667230094
  @DF-RKS Final Energy:  -895.95912405689853
    Total Energy =                       -895.9591240568984176
  @DF-RKS Final Energy:  -895.96039430866381
    Total Energy =                       -895.9603943086636946
  @DF-RKS Final Energy:  -895.96135680460645
    Total Energy =                       -895.9613568046065666
  @DF-RKS Final Energy:  -895.96198423723899
    Total Energy =                       -895.9619842372389940
  @DF-RKS Final Energy:  -895.96228597686377
    Total Energy =                       -895.9622859768637682
  @DF-RKS Final Energy:  -895.96233669794947
    Total Energy =                       -895.9623366979494676
  @DF-RKS Final Energy:  -895.96232796257743
    Total Energy =                       -895.9623279625773193
  @DF-RKS Final Energy:  -895.96234187038920
    Total Energy =                       -895.9623418703890820
  @DF-RKS Final Energy:  -895.96198369715160
    Total Energy =                       -895.9619836971515952
  Basis Set: (6-311G AUX)
    Blend: CC-PVTZ-JKFIT
  Basis Set: 6-311G
    Blend: 6-311G
  Basis Set: (6-311G AUX)
    Blend: CC-PVTZ-JKFIT
  @DF-RKS Final Energy:  -895.96225569147646
    Total Energy =                       -895.9622556914764573
  Basis Set: 6-311G
    Blend: 6-311G
  Basis Set: (6-311G AUX)
    Blend: CC-PVTZ-JKFIT
  Charge       = 0
  Multiplicity = 1
  Basis Set: 6-311G
    Blend: 6-311G
  Basis Set: (6-311G AUX)
    Blend: CC-PVTZ-JKFIT

    Orbital Energies [Eh]
    ---------------------

    Doubly Occupied:

       1A    -19.192201     2A    -14.482050     3A    -14.456442
       4A    -14.439771     5A    -10.382871     6A    -10.368370
       7A    -10.341943     8A    -10.340789     9A    -10.316824
      10A    -10.310443    11A    -10.301448    12A    -10.297650
      13A    -10.294287    14A    -10.294123    15A    -10.292676
      16A    -10.292207    17A    -10.291235    18A    -10.290071
      19A    -10.287594    20A    -10.286368    21A    -10.274890
      22A     -1.129041    23A     -1.077782    24A     -1.047858
      25A     -1.031551    26A     -0.972789    27A     -0.952586
      28A     -0.903632    29A     -0.871880    30A     -0.861359
      31A     -0.852718    32A     -0.837560    33A     -0.816802
      34A     -0.766947    35A     -0.734062    36A     -0.721797
      37A     -0.704499    38A     -0.700537    39A     -0.677996
      40A     -0.657578    41A     -0.641848    42A     -0.626590
      43A     -0.612568    44A     -0.604270    45A     -0.596444
      46A     -0.563907    47A     -0.551287    48A     -0.548411
      49A     -0.539969    50A     -0.529403    51A     -0.524638
      52A     -0.520835    53A     -0.516372    54A     -0.512316
      55A     -0.509168    56A     -0.495634    57A     -0.488927
      58A     -0.478575    59A     -0.471368    60A     -0.464037
      61A     -0.452579    62A     -0.438064    63A     -0.433095
      64A     -0.427837    65A     -0.397313    66A     -0.394958
      67A     -0.341596    68A     -0.338877    69A     -0.335276
      70A     -0.327956    71A     -0.310513    72A     -0.278126
      73A     -0.245840

  @DF-RKS Final Energy:  -895.96234181673174

   => Energetics <=

    Nuclear Repulsion Energy =           1528.5435534428156643
    One-Electron Energy =               -4250.0359581852462725
    Two-Electron Energy =                1913.3028112732820318
    DFT Exchange-Correlation Energy =     -87.7475512375123969
    Empirical Dispersion Energy =          -0.0251971100705696
    VV10 Nonlocal Energy =                  0.0000000000000000
    Total Energy =                       -895.9623418167316231

  Dipole Moment: [D]
     X:     4.8799      Y:    -1.9600      Z:     0.7054     Total:     5.3059

    Molecular point group: c1
  Basis Set: 6-311G
    Blend: 6-311G
  Basis Set: (6-311G AUX)
    Blend: CC-PVTZ-JKFIT

  -Total Gradient:
     Atom            X                  Y                   Z
    ------   -----------------  -----------------  -----------------
       1        0.000019028306     0.001482489855     0.014205706687
       2       -0.000413213225    -0.002280233832    -0.018829622558
       3       -0.001016698928    -0.000202153968     0.007707207483
       4        0.003261422842     0.002762302134    -0.013454626002
       5        0.000000134093     0.000029867181    -0.000019205495
       6        0.000185530755    -0.000335191831    -0.000044354242
       7        0.000343478575     0.000039737250     0.000289453454
       8        0.000148144275    -0.000122923733    -0.000927602873
       9       -0.000182852490     0.000087066724    -0.000062043957
      10        0.000570188742    -0.000746053091     0.003587437796
      11       -0.001108258190     0.001975062976    -0.001756366273
      12        0.000745269582    -0.001093076723     0.001344216435
      13       -0.000003840522     0.000005590186     0.000026143518
      14       -0.000021178980    -0.000011324746    -0.000010529727
      15        0.000029491505     0.000009114690     0.000017084561
      16       -0.001751261456    -0.001540767334     0.007602725828
      17       -0.000237901859     0.000120919535    -0.000151071964
      18        0.000524091624     0.000579064988    -0.001795991613
      19        0.000080371244    -0.000013370202     0.000033037941
      20       -0.001196947763    -0.000639754970     0.003616819463
      21       -0.000060944006     0.000109844730    -0.000086013316
      22       -0.000301694956    -0.000298548235     0.000344600471
      23       -0.000012178140     0.000003876927     0.000013352567
      24        0.000005924454     0.000002848398     0.000010374928
      25       -0.000003070931     0.000012298479    -0.000001257855
      26        0.000007135275    -0.000005328586     0.000018601862
      27       -0.000007191623     0.000010525326     0.000005577158
      28       -0.000006253032     0.000016285957     0.000013111098
      29        0.000033220925    -0.000098546299     0.000051118896
      30        0.000011388827     0.000009192976     0.000008032225
      31        0.000002337420    -0.000011703977    -0.000017723798
      32        0.001424110837    -0.000375805463    -0.004363746712
      33       -0.000175926693     0.000062712205    -0.000013534686
      34       -0.000002418229     0.000021813941     0.000073353463
      35       -0.000831562699     0.000510639775     0.002527510786
      36       -0.000004543161    -0.000002798558    -0.000005453296

  **** Optimization is complete! (in 1 steps) ****
    Final optimized geometry and variables:
    Molecular point group: c1

    Geometry (in Angstrom), charge = 0, multiplicity = 1:

    C           -0.553882604601     1.341488159698    -0.489851932534
    C           -0.683927052147    -0.023866363756    -0.363767939199
    N            0.368558406502    -0.902325577612    -0.235952511398
    C            1.735288088961    -0.756104129105     0.125842686513
    H            0.074774576741    -1.864962386435    -0.223336204855
    C            0.603418609883     2.049479834407    -1.056260706853
    N           -1.073120920889     3.525826338096    -0.884566927814
    C           -1.638991923119     2.349394908145    -0.411158591982
    C            0.250618655758     3.329822913106    -1.285504087772
    C           -1.987442556133    -0.755645397408    -0.254341649051
    C           -2.979263541664    -0.413885967669     0.667701253749
    C           -2.189624089245    -1.867586862705    -1.088980491193
    C           -4.141576994175    -1.176605187409     0.756528639097
    C           -3.354369920624    -2.622009078128    -1.000172513578
    C           -4.334325900875    -2.279140331376    -0.071012534612
    C            2.513743256166    -1.921853868832     0.094556375713
    C            2.276869030455     0.370718484551     0.752049212081
    C            3.817796988734    -1.936541836595     0.561805539604
    C            3.582318229754     0.355856963501     1.230656148305
    C            4.382492077379    -0.789352294259     1.138819316938
    H           -1.586955973176     4.384804848653    -0.909914386679
    O           -2.809004898263     2.291325854524     0.024838712932
    H           -2.855172936836     0.451162679036     1.294581130056
    H           -1.451261805206    -2.118835729033    -1.841242792645
    H           -4.900811532826    -0.898746896810     1.474422084548
    H           -3.499208072410    -3.465903034246    -1.660933020400
    H           -5.242719979011    -2.861763333380     0.000881404748
    H            2.099958550056    -2.826548499188    -0.335836022916
    H            1.682528473853     1.256257416017     0.898002744121
    H            4.404735190875    -2.842439188681     0.483013791237
    H            3.975710550674     1.245507542568     1.706335004645
    N            5.704403796062    -0.785561918237     1.568097751679
    H            1.538136143505     1.606517717524    -1.343492304636
    H            0.817283237314     4.126429255916    -1.733788356514
    H            6.126882951727    -1.641408559424     1.873916853325
    H            6.086193849315     0.055743450445     1.956890901593

*** Psi4 exiting successfully. Buy a developer a beer!
