                               Psi4 1.3.2 release

  ==> Input File <==

--------------------------------------------------------------------------
molecule {
0 1
 C   -0.683743    1.526911   -0.072429
 C   -0.759301    0.242215    0.420107
 N    0.271363   -0.185943    1.297455
 C    1.613134   -0.494907    0.889817
 H   -0.077137   -0.825488    2.011648
 C   -0.751772    2.762520    0.687031
 N   -0.507144    3.296750   -1.494583
 C   -0.527840    1.909226   -1.519300
 C   -0.641662    3.785264   -0.202215
 C   -1.888184   -0.693984    0.176639
 C   -3.221655   -0.277990    0.420232
 C   -1.656182   -2.022337   -0.254973
 C   -4.289202   -1.164086    0.229480
 C   -2.725036   -2.908076   -0.439068
 C   -4.048206   -2.484964   -0.199353
 C    1.986436   -1.789062    0.458107
 C    2.598722    0.520219    0.904177
 C    3.300721   -2.054089    0.048930
 C    3.911812    0.249492    0.496209
 C    4.294532   -1.044612    0.064476
 H   -0.405307    3.837496   -2.341394
 O   -0.439218    1.244748   -2.551770
 H   -3.417353    0.739363    0.762663
 H   -0.637967   -2.352138   -0.457532
 H   -5.308855   -0.825196    0.418549
 H   -2.526596   -3.928063   -0.771303
 H   -4.880607   -3.175422   -0.345485
 H    1.255091   -2.598727    0.441699
 H    2.338922    1.529855    1.229230
 H    3.549641   -3.063811   -0.284981
 H    4.643725    1.059977    0.514504
 N    5.629392   -1.317455   -0.357803
 H   -0.866495    2.846809    1.758006
 H   -0.646481    4.853433   -0.033695
 H    5.913213   -2.287116   -0.215401
 H    6.325008   -0.702173    0.064961
}
set optking {
  frozen_dihedral = ("
    16 4 3 2
    1 2 10 11
    1 2 10 12
    3 2 10 11
    1 2 3 4
    10 2 3 4
    18 20 32 35
  ")
}
set {
  geom_maxiter 400
  g_convergence GAU_LOOSE
  dynamic_level 1
}
memory 8.333333333333334GB
set_num_threads(1)
psi4_io.set_default_path("/scratch/bdw2292/Psi4-7_1_Index_0_GrowFragment_0-farH_in17")
for _ in range(1):
  try:
    set opt_coordinates both
    optimize('wb97x-d/6-311G')
    break
  except OptimizationConvergenceError:
    break
  else:
    try:
      set opt_coordinates cartesian
      optimize('wb97x-d/6-311G')
      break
    except OptimizationConvergenceError:
      pass
clean()
--------------------------------------------------------------------------

    Molecular point group: c1
  Charge       = 0
  Multiplicity = 1
  Basis Set: 6-311G
    Blend: 6-311G
  Basis Set: (6-311G AUX)
    Blend: CC-PVTZ-JKFIT
  @DF-RKS Final Energy:  -895.90195164008799
    Total Energy =                       -895.9019516400879866
    Molecular point group: c1
  Basis Set: 6-311G
    Blend: 6-311G
  Basis Set: (6-311G AUX)
    Blend: CC-PVTZ-JKFIT
  Basis Set: 6-311G
    Blend: 6-311G
  Basis Set: (6-311G AUX)
    Blend: CC-PVTZ-JKFIT
  @DF-RKS Final Energy:  -895.92798291391489
    Total Energy =                       -895.9279829139147751
  Basis Set: 6-311G
    Blend: 6-311G
  Basis Set: (6-311G AUX)
    Blend: CC-PVTZ-JKFIT
  Basis Set: 6-311G
    Blend: 6-311G
  @DF-RKS Final Energy:  -895.93313950356912
    Total Energy =                       -895.9331395035691230
  @DF-RKS Final Energy:  -895.95353037040559
    Total Energy =                       -895.9535303704054741
  @DF-RKS Final Energy:  -895.95556612820531
    Total Energy =                       -895.9555661282054189
  @DF-RKS Final Energy:  -895.95543682473169
    Total Energy =                       -895.9554368247316916
  @DF-RKS Final Energy:  -895.95556612190489
    Total Energy =                       -895.9555661219048943
  @DF-RKS Final Energy:  -895.95589084093262
    Total Energy =                       -895.9558908409326250
  @DF-RKS Final Energy:  -895.95615939095569
    Total Energy =                       -895.9561593909558042
  Basis Set: (6-311G AUX)
    Blend: CC-PVTZ-JKFIT
  Basis Set: 6-311G
    Blend: 6-311G
  Basis Set: (6-311G AUX)
    Blend: CC-PVTZ-JKFIT
  @DF-RKS Final Energy:  -895.95627307865004
    Total Energy =                       -895.9562730786501561
  Basis Set: 6-311G
    Blend: 6-311G
  Basis Set: (6-311G AUX)
    Blend: CC-PVTZ-JKFIT
  Charge       = 0
  Multiplicity = 1
  Basis Set: 6-311G
    Blend: 6-311G
  Basis Set: (6-311G AUX)
    Blend: CC-PVTZ-JKFIT

    Orbital Energies [Eh]
    ---------------------

    Doubly Occupied:

       1A    -19.199978     2A    -14.460395     3A    -14.448532
       4A    -14.439527     5A    -10.386976     6A    -10.351098
       7A    -10.342507     8A    -10.326416     9A    -10.323616
      10A    -10.305350    11A    -10.296601    12A    -10.295169
      13A    -10.293216    14A    -10.293030    15A    -10.292279
      16A    -10.292067    17A    -10.291426    18A    -10.290484
      19A    -10.289550    20A    -10.289193    21A    -10.277932
      22A     -1.135825    23A     -1.054455    24A     -1.047106
      25A     -1.030848    26A     -0.970116    27A     -0.947602
      28A     -0.901154    29A     -0.868918    30A     -0.857965
      31A     -0.853505    32A     -0.832870    33A     -0.816229
      34A     -0.761062    35A     -0.726164    36A     -0.710457
      37A     -0.706577    38A     -0.701231    39A     -0.680273
      40A     -0.644782    41A     -0.631913    42A     -0.625397
      43A     -0.613855    44A     -0.598942    45A     -0.597066
      46A     -0.564596    47A     -0.556469    48A     -0.540049
      49A     -0.538054    50A     -0.531394    51A     -0.529560
      52A     -0.521639    53A     -0.517021    54A     -0.512527
      55A     -0.505628    56A     -0.493036    57A     -0.485015
      58A     -0.475351    59A     -0.469735    60A     -0.457300
      61A     -0.445060    62A     -0.433115    63A     -0.428648
      64A     -0.405866    65A     -0.400950    66A     -0.382654
      67A     -0.343494    68A     -0.336910    69A     -0.334545
      70A     -0.325129    71A     -0.316321    72A     -0.280334
      73A     -0.258632

  @DF-RKS Final Energy:  -895.95631481248643

   => Energetics <=

    Nuclear Repulsion Energy =           1538.4758088364906143
    One-Electron Energy =               -4270.2584859539929312
    Two-Electron Energy =                1923.5897207858229194
    DFT Exchange-Correlation Energy =     -87.7370644751152895
    Empirical Dispersion Energy =          -0.0262940056918351
    VV10 Nonlocal Energy =                  0.0000000000000000
    Total Energy =                       -895.9563148124865393

  Dipole Moment: [D]
     X:     3.4026      Y:    -0.8067      Z:     3.0330     Total:     4.6289

    Molecular point group: c1
  Basis Set: 6-311G
    Blend: 6-311G
  Basis Set: (6-311G AUX)
    Blend: CC-PVTZ-JKFIT

  -Total Gradient:
     Atom            X                  Y                   Z
    ------   -----------------  -----------------  -----------------
       1        0.004663601660     0.001224295187     0.007629683346
       2       -0.010683017015    -0.004397484139    -0.010116524916
       3        0.004550197499     0.012889208315     0.002340635753
       4       -0.001580634994    -0.006410249176     0.000966331449
       5       -0.000122239175     0.000025630829    -0.000065095613
       6        0.000196325711     0.000159902132    -0.000428707811
       7        0.000344955344    -0.000023306723     0.000128007041
       8       -0.000087956693    -0.000068450731    -0.000204987131
       9       -0.000574823910    -0.000047076230     0.000182751533
      10        0.003166234947    -0.004077263125     0.000102499739
      11       -0.000083570436    -0.000227606794     0.000338633739
      12       -0.000003846882     0.000050981835     0.000766373241
      13        0.000069002370    -0.000035353715    -0.000062038556
      14       -0.000159733559     0.000015189986    -0.000058269362
      15        0.000023583049     0.000009469697    -0.000024246652
      16       -0.000106703023     0.000725458794    -0.001689627765
      17       -0.000130371507     0.000075088152    -0.000014802332
      18       -0.000044199561     0.000711007487    -0.001934574555
      19        0.000408979197    -0.000371949264    -0.000000493306
      20        0.000279224728    -0.000541833327     0.003941181888
      21        0.000209126090    -0.000128601907     0.000118837359
      22        0.000166396297     0.000393690616     0.000447691813
      23        0.000013031041    -0.000015578310    -0.000032806136
      24       -0.000015990525     0.000009932742    -0.000020492689
      25        0.000011280210    -0.000004696530    -0.000018630992
      26       -0.000005896735     0.000039491561     0.000010775019
      27       -0.000000496757     0.000015641212     0.000026026031
      28       -0.000023461393     0.000027912802    -0.000024744770
      29        0.000223226557    -0.000361707512    -0.000025770861
      30       -0.000023121232     0.000054437416     0.000023620594
      31        0.000046592007    -0.000016097923     0.000003013512
      32       -0.000538226600     0.000160365143    -0.005121592093
      33       -0.000321877002     0.000163500979    -0.000479637337
      34        0.000015644179    -0.000060803656    -0.000059653404
      35        0.000355105040     0.000444922723     0.003094390799
      36       -0.000197806412    -0.000260400599     0.000063973588

  **** Optimization is complete! (in 5 steps) ****
    Final optimized geometry and variables:
    Molecular point group: c1

    Geometry (in Angstrom), charge = 0, multiplicity = 1:

    C           -0.619750253208     1.579506715909    -0.126537215365
    C           -0.846988231808     0.299190260996     0.266366408944
    N           -0.108200270871    -0.211527743397     1.366664271279
    C            1.297085151082    -0.552810437842     1.287639586408
    H           -0.628155409899    -0.926458837956     1.857290334904
    C            0.092772813234     2.640631709196     0.579564442608
    N           -0.589606785724     3.475208587162    -1.396062975131
    C           -1.070479011399     2.171551332378    -1.421050832215
    C            0.071594807195     3.745980562418    -0.190194433955
    C           -1.881467757815    -0.601956295157    -0.296616618776
    C           -3.207163731628    -0.162913811982    -0.391898386341
    C           -1.570897197990    -1.905790191526    -0.696261349765
    C           -4.200269952436    -1.009691603813    -0.868669797946
    C           -2.563358903384    -2.751096215640    -1.183714313435
    C           -3.881216165956    -2.307371761577    -1.264707613371
    C            1.693586428695    -1.832108587247     0.886507457681
    C            2.292007060608     0.361002249945     1.630115648045
    C            3.034617853851    -2.180938277816     0.805617138449
    C            3.637984011158     0.023559252203     1.551943515465
    C            4.034743415815    -1.254367547648     1.136804821049
    H           -0.717523335507     4.109615530092    -2.159703442664
    O           -1.693896237192     1.672363199152    -2.372576038339
    H           -3.447857711269     0.847833070937    -0.094178932028
    H           -0.546036869047    -2.243499497984    -0.669689804644
    H           -5.219806568320    -0.656470054688    -0.937908952853
    H           -2.306065201992    -3.750227305155    -1.508027477035
    H           -4.653114858747    -2.965646198900    -1.639546743175
    H            0.945260233324    -2.572350751951     0.640593494371
    H            2.016980882113     1.342986180780     1.975268502731
    H            3.313336014480    -3.171581673581     0.470125797775
    H            4.388670623918     0.753665256741     1.827583177559
    N            5.376703444941    -1.585348139702     1.011669028897
    H            0.455186959863     2.576733625570     1.586596355297
    H            0.442547228454     4.733492094444     0.020238365745
    H            5.662420727459    -2.540766664336     1.110228304875
    H            6.070149233089    -0.895052259710     1.227573604407

*** Psi4 exiting successfully. Buy a developer a beer!
