                               Psi4 1.3.2 release

  ==> Input File <==

--------------------------------------------------------------------------
molecule {
0 1
 C   -0.764590    1.522901   -0.415621
 C   -0.763871    0.348585    0.306783
 N    0.330756    0.081365    1.169042
 C    1.679465   -0.288798    0.826044
 H    0.008820   -0.427382    1.992941
 C   -1.081645    2.847989    0.086751
 N   -0.642145    3.030555   -2.121856
 C   -0.465953    1.675957   -1.881694
 C   -0.995117    3.708301   -0.962804
 C   -1.872208   -0.639546    0.328435
 C   -3.203648   -0.234568    0.593763
 C   -1.602517   -2.012639    0.107466
 C   -4.237114   -1.179126    0.629922
 C   -2.638521   -2.953823    0.143653
 C   -3.962141   -2.543431    0.404065
 C    2.136524   -0.415404   -0.511265
 C    2.613432   -0.513318    1.868983
 C    3.466025   -0.764694   -0.786541
 C    3.939469   -0.866961    1.585982
 C    4.394553   -1.009558    0.253559
 H   -0.514074    3.428040   -3.041259
 O   -0.131338    0.862563   -2.747819
 H   -3.424525    0.818989    0.771814
 H   -0.579040   -2.334130   -0.092177
 H   -5.257123   -0.851336    0.835598
 H   -2.413909   -4.007112   -0.029945
 H   -4.769271   -3.277456    0.431150
 H    1.471013   -0.253708   -1.360616
 H    2.310741   -0.407102    2.913500
 H    3.776603   -0.847049   -1.830548
 H    4.624788   -1.029687    2.420797
 N    5.746388   -1.365151   -0.031707
 H   -1.340911    3.097769    1.105375
 H   -1.159939    4.776357   -0.998817
 H    5.855069   -1.859361   -0.917982
 H    6.191725   -1.909395    0.707662
}
set optking {
  frozen_dihedral = ("
    16 4 3 2
    1 2 10 11
    1 2 10 12
    3 2 10 11
    1 2 3 4
    10 2 3 4
    18 20 32 35
  ")
}
set {
  geom_maxiter 400
  g_convergence GAU_LOOSE
  dynamic_level 1
}
memory 8.333333333333334GB
set_num_threads(1)
psi4_io.set_default_path("/scratch/bdw2292/Psi4-7_1_Index_0_GrowFragment_0-farH_in17")
for _ in range(1):
  try:
    set opt_coordinates both
    optimize('wb97x-d/6-311G')
    break
  except OptimizationConvergenceError:
    break
  else:
    try:
      set opt_coordinates cartesian
      optimize('wb97x-d/6-311G')
      break
    except OptimizationConvergenceError:
      pass
clean()
--------------------------------------------------------------------------

    Molecular point group: c1
  Charge       = 0
  Multiplicity = 1
  Basis Set: 6-311G
    Blend: 6-311G
  Basis Set: (6-311G AUX)
    Blend: CC-PVTZ-JKFIT
  @DF-RKS Final Energy:  -895.88793167987126
    Total Energy =                       -895.8879316798711443
    Molecular point group: c1
  Basis Set: 6-311G
    Blend: 6-311G
  Basis Set: (6-311G AUX)
    Blend: CC-PVTZ-JKFIT
  Basis Set: 6-311G
    Blend: 6-311G
  Basis Set: (6-311G AUX)
    Blend: CC-PVTZ-JKFIT
  @DF-RKS Final Energy:  -895.91391880566948
    Total Energy =                       -895.9139188056694820
  Basis Set: 6-311G
    Blend: 6-311G
  Basis Set: (6-311G AUX)
    Blend: CC-PVTZ-JKFIT
  Basis Set: 6-311G
    Blend: 6-311G
  @DF-RKS Final Energy:  -895.93311786862409
    Total Energy =                       -895.9331178686240946
  @DF-RKS Final Energy:  -893.99923556184672
    Total Energy =                       -893.9992355618467172
  @DF-RKS Final Energy:  -894.50509574618604
    Total Energy =                       -894.5050957461861572
  @DF-RKS Final Energy:  -895.02791570423381
    Total Energy =                       -895.0279157042338056
  @DF-RKS Final Energy:  -895.43956926824956
    Total Energy =                       -895.4395692682496701
  @DF-RKS Final Energy:  -895.68362052739303
    Total Energy =                       -895.6836205273930318
  @DF-RKS Final Energy:  -895.78846163648484
    Total Energy =                       -895.7884616364847261
  @DF-RKS Final Energy:  -895.84275004222559
    Total Energy =                       -895.8427500422257026
  @DF-RKS Final Energy:  -895.89521875683306
    Total Energy =                       -895.8952187568330601
  @DF-RKS Final Energy:  -895.24258075825139
    Total Energy =                       -895.2425807582513926
  @DF-RKS Final Energy:  -895.89521874571278
    Total Energy =                       -895.8952187457126684
  @DF-RKS Final Energy:  -895.91852831438973
    Total Energy =                       -895.9185283143898459
  @DF-RKS Final Energy:  -895.92497146984454
    Total Energy =                       -895.9249714698445359
  @DF-RKS Final Energy:  -895.94293322935255
    Total Energy =                       -895.9429332293525476
  @DF-RKS Final Energy:  -895.95077959680793
    Total Energy =                       -895.9507795968078199
  @DF-RKS Final Energy:  -895.95486148045018
    Total Energy =                       -895.9548614804501767
  @DF-RKS Final Energy:  -895.95778170300321
    Total Energy =                       -895.9577817030033202
  @DF-RKS Final Energy:  -895.96018171594358
    Total Energy =                       -895.9601817159435768
  @DF-RKS Final Energy:  -895.96213386896568
    Total Energy =                       -895.9621338689656795
  @DF-RKS Final Energy:  -895.96367014652787
    Total Energy =                       -895.9636701465277611
  @DF-RKS Final Energy:  -895.96479506709670
    Total Energy =                       -895.9647950670965884
  @DF-RKS Final Energy:  -895.96553184473612
    Total Energy =                       -895.9655318447362333
  @DF-RKS Final Energy:  -895.96590789448203
    Total Energy =                       -895.9659078944820294
  Basis Set: (6-311G AUX)
    Blend: CC-PVTZ-JKFIT
  Basis Set: 6-311G
    Blend: 6-311G
  Basis Set: (6-311G AUX)
    Blend: CC-PVTZ-JKFIT
  @DF-RKS Final Energy:  -895.96599454271745
    Total Energy =                       -895.9659945427174534
  Basis Set: 6-311G
    Blend: 6-311G
  Basis Set: (6-311G AUX)
    Blend: CC-PVTZ-JKFIT
  Charge       = 0
  Multiplicity = 1
  Basis Set: 6-311G
    Blend: 6-311G
  Basis Set: (6-311G AUX)
    Blend: CC-PVTZ-JKFIT

    Orbital Energies [Eh]
    ---------------------

    Doubly Occupied:

       1A    -19.207783     2A    -14.464952     3A    -14.454216
       4A    -14.431278     5A    -10.393675     6A    -10.353278
       7A    -10.332530     8A    -10.329943     9A    -10.328383
      10A    -10.306807    11A    -10.298979    12A    -10.295939
      13A    -10.293834    14A    -10.292655    15A    -10.292517
      16A    -10.290427    17A    -10.290302    18A    -10.287485
      19A    -10.287114    20A    -10.285335    21A    -10.279190
      22A     -1.142354    23A     -1.061348    24A     -1.055284
      25A     -1.022313    26A     -0.971111    27A     -0.944638
      28A     -0.904553    29A     -0.871420    30A     -0.854501
      31A     -0.853288    32A     -0.832289    33A     -0.817943
      34A     -0.766016    35A     -0.724203    36A     -0.714517
      37A     -0.705155    38A     -0.699244    39A     -0.682576
      40A     -0.647534    41A     -0.631018    42A     -0.626308
      43A     -0.606449    44A     -0.601781    45A     -0.595781
      46A     -0.563875    47A     -0.558224    48A     -0.542360
      49A     -0.534269    50A     -0.531270    51A     -0.522647
      52A     -0.517291    53A     -0.514720    54A     -0.513362
      55A     -0.509514    56A     -0.496059    57A     -0.485430
      58A     -0.478952    59A     -0.470655    60A     -0.459709
      61A     -0.441582    62A     -0.431817    63A     -0.429322
      64A     -0.424565    65A     -0.407553    66A     -0.384954
      67A     -0.348292    68A     -0.338406    69A     -0.333889
      70A     -0.328022    71A     -0.320795    72A     -0.275674
      73A     -0.249302

  @DF-RKS Final Energy:  -895.96600876858247

   => Energetics <=

    Nuclear Repulsion Energy =           1541.6126123120791362
    One-Electron Energy =               -4276.4445613075304209
    Two-Electron Energy =                1926.6337384007354103
    DFT Exchange-Correlation Energy =     -87.7415787302700210
    Empirical Dispersion Energy =          -0.0262194435967892
    VV10 Nonlocal Energy =                  0.0000000000000000
    Total Energy =                       -895.9660087685824692

  Dipole Moment: [D]
     X:     3.4060      Y:    -0.3170      Z:     1.6557     Total:     3.8004

    Molecular point group: c1
  Basis Set: 6-311G
    Blend: 6-311G
  Basis Set: (6-311G AUX)
    Blend: CC-PVTZ-JKFIT

  -Total Gradient:
     Atom            X                  Y                   Z
    ------   -----------------  -----------------  -----------------
       1        0.002669864684    -0.000859301491     0.009614666184
       2       -0.002454260027     0.000478056344    -0.018163495119
       3       -0.005655884989     0.008592412671     0.011795403214
       4        0.001509285840    -0.004663773507    -0.004504068973
       5       -0.000027682003    -0.000013718645     0.000001502032
       6       -0.000051782386    -0.000105725178    -0.000031698986
       7       -0.000345891603    -0.000008108006    -0.000007593877
       8        0.000086886984    -0.000163782688     0.000092465320
       9        0.000176424512     0.000045560369    -0.000091095741
      10        0.003934505453    -0.003882109665     0.002001793129
      11        0.000171165693    -0.000850801897     0.000739551332
      12       -0.000296991415     0.001629405568    -0.001439799379
      13       -0.000001285616     0.000072909149     0.000069984653
      14       -0.000003846890    -0.000015622673    -0.000019841513
      15        0.000065162192    -0.000013970224    -0.000011866098
      16        0.000004813872    -0.000070304663    -0.000100309044
      17        0.000041170462     0.000012813973     0.000002540182
      18       -0.000383015289     0.001015472074     0.001166267839
      19        0.000007594275     0.000037872153     0.000009020467
      20        0.000734486665    -0.002322894839    -0.002014836361
      21        0.000065024704     0.000045495088    -0.000033961840
      22        0.000134894994    -0.000015972755     0.000047510806
      23        0.000011467648    -0.000019553917    -0.000023001659
      24        0.000006409357    -0.000008932611     0.000016083954
      25        0.000016160023    -0.000001625212     0.000005278020
      26        0.000006232485     0.000000603089     0.000012922601
      27        0.000010846850     0.000007336789    -0.000000748830
      28       -0.000011467771    -0.000001340584    -0.000011287868
      29       -0.000001462981     0.000003994385     0.000004940376
      30       -0.000003324508     0.000004677755    -0.000006815873
      31       -0.000017592576     0.000008808133     0.000019716614
      32       -0.001193815982     0.003383926577     0.001653663278
      33       -0.000038185843     0.000027512222     0.000028568079
      34       -0.000028340390    -0.000027137897    -0.000019969174
      35        0.000761027532    -0.001973294195    -0.000727770769
      36        0.000047881561    -0.000075341723    -0.000030616823

  **** Optimization is complete! (in 15 steps) ****
    Final optimized geometry and variables:
    Molecular point group: c1

    Geometry (in Angstrom), charge = 0, multiplicity = 1:

    C           -1.367756041873     0.926290087736     0.466808216686
    C           -0.875838969606    -0.308914904021     0.200699884550
    N            0.148017954872    -0.789256794198     1.051692615157
    C            1.486517925316    -0.299631900617     1.038135030301
    H            0.104726725649    -1.788613855886     1.185098164772
    C           -0.986094823148     1.806178700808     1.568485281001
    N           -2.446700275313     2.922847023157     0.261507956350
    C           -2.335865665332     1.691238229448    -0.371462010658
    C           -1.644707648134     2.970990889197     1.413410061764
    C           -1.327261342500    -1.278263639224    -0.821135671890
    C           -2.669971519462    -1.646388721382    -0.942214934204
    C           -0.375214473873    -1.857108215159    -1.670944139499
    C           -3.053957954185    -2.587759955254    -1.890998651824
    C           -0.764310297329    -2.787530462665    -2.629192198251
    C           -2.103985717318    -3.157642959346    -2.736981750308
    C            1.905379595480     0.733152679300     0.195804462786
    C            2.418890707560    -0.869190379683     1.909316430175
    C            3.221002329389     1.180755047983     0.226913274048
    C            3.741711501298    -0.444729407655     1.916639657294
    C            4.168412979808     0.591550103650     1.074657976546
    H           -3.037069676705     3.654676831095    -0.082392645658
    O           -2.937922529270     1.376956562241    -1.411709785061
    H           -3.405778839097    -1.184095625454    -0.300819055262
    H            0.664707108017    -1.569695843570    -1.580218056159
    H           -4.094152891677    -2.869963783383    -1.976506629525
    H           -0.026245915544    -3.220752787426    -3.290317790381
    H           -2.406574584533    -3.884459836419    -3.478669531999
    H            1.200209436710     1.203694316029    -0.474568804200
    H            2.105439308968    -1.653430537313     2.587263278634
    H            3.516750604066     2.001955752462    -0.413592721288
    H            4.448000233114    -0.914450606779     2.590087755074
    N            5.479629801687     1.061939928447     1.114584685279
    H           -0.308279524859     1.547458955298     2.360694971444
    H           -1.632453256004     3.851140751079     2.031772362854
    H            5.873702321670     1.487704280012     0.297459930205
    H            6.130915909529     0.632518735858     1.743756027881

*** Psi4 exiting successfully. Buy a developer a beer!
