                               Psi4 1.3.2 release

  ==> Input File <==

--------------------------------------------------------------------------
molecule {
0 1
 C   -0.736017    1.538161   -0.280881
 C   -0.765014    0.324898    0.368549
 N    0.300207    0.017463    1.253252
 C    1.640573   -0.312162    0.849729
 H   -0.015862   -0.600816    2.000794
 C   -1.022972    2.848100    0.274110
 N   -0.517062    3.108650   -1.914240
 C   -0.402995    1.737461   -1.733576
 C   -0.877511    3.748602   -0.734857
 C   -1.870682   -0.665145    0.293195
 C   -3.207995   -0.263629    0.534596
 C   -1.604369   -2.028217    0.012533
 C   -4.249272   -1.198795    0.486812
 C   -2.648208   -2.960314   -0.035111
 C   -3.976894   -2.552287    0.201334
 C    1.944393   -0.915947   -0.396671
 C    2.707525   -0.039566    1.738192
 C    3.264311   -1.257175   -0.723583
 C    4.025077   -0.380461    1.404096
 C    4.332851   -1.008108    0.172190
 H   -0.345966    3.540293   -2.811057
 O   -0.096363    0.946106   -2.629525
 H   -3.426697    0.781004    0.761269
 H   -0.578314   -2.353477   -0.164593
 H   -5.273103   -0.872314    0.674684
 H   -2.425089   -4.005457   -0.254333
 H   -4.789196   -3.280313    0.165074
 H    1.161648   -1.110991   -1.133049
 H    2.509553    0.440170    2.699232
 H    3.457642   -1.719250   -1.694194
 H    4.819758   -0.153397    2.118108
 N    5.675499   -1.353799   -0.164732
 H   -1.296319    3.061553    1.297203
 H   -0.999967    4.823288   -0.727655
 H    5.744100   -2.148209   -0.801598
 H    6.268499   -1.527283    0.647338
}
set optking {
  frozen_dihedral = ("
    16 4 3 2
    1 2 10 11
    1 2 10 12
    3 2 10 11
    1 2 3 4
    10 2 3 4
    18 20 32 35
  ")
}
set {
  geom_maxiter 400
  g_convergence GAU_LOOSE
  dynamic_level 1
}
memory 8.333333333333334GB
set_num_threads(1)
psi4_io.set_default_path("/scratch/bdw2292/Psi4-7_1_Index_0_GrowFragment_0-farH_in17")
for _ in range(1):
  try:
    set opt_coordinates both
    optimize('wb97x-d/6-311G')
    break
  except OptimizationConvergenceError:
    break
  else:
    try:
      set opt_coordinates cartesian
      optimize('wb97x-d/6-311G')
      break
    except OptimizationConvergenceError:
      pass
clean()
--------------------------------------------------------------------------

    Molecular point group: c1
  Charge       = 0
  Multiplicity = 1
  Basis Set: 6-311G
    Blend: 6-311G
  Basis Set: (6-311G AUX)
    Blend: CC-PVTZ-JKFIT
  @DF-RKS Final Energy:  -895.88972078590086
    Total Energy =                       -895.8897207859007494
    Molecular point group: c1
  Basis Set: 6-311G
    Blend: 6-311G
  Basis Set: (6-311G AUX)
    Blend: CC-PVTZ-JKFIT
  Basis Set: 6-311G
    Blend: 6-311G
  Basis Set: (6-311G AUX)
    Blend: CC-PVTZ-JKFIT
  @DF-RKS Final Energy:  -895.91725820916713
    Total Energy =                       -895.9172582091671302
  Basis Set: 6-311G
    Blend: 6-311G
  Basis Set: (6-311G AUX)
    Blend: CC-PVTZ-JKFIT
  Basis Set: 6-311G
    Blend: 6-311G
  @DF-RKS Final Energy:  -895.94037404085668
    Total Energy =                       -895.9403740408566819
  @DF-RKS Final Energy:  -895.91129926244935
    Total Energy =                       -895.9112992624493472
  @DF-RKS Final Energy:  -895.95602869544234
    Total Energy =                       -895.9560286954423418
  @DF-RKS Final Energy:  -895.96024996153540
    Total Energy =                       -895.9602499615353963
  @DF-RKS Final Energy:  -895.95602870628761
    Total Energy =                       -895.9560287062876114
  @DF-RKS Final Energy:  -895.96023156447382
    Total Energy =                       -895.9602315644739292
  @DF-RKS Final Energy:  -895.96220592439045
    Total Energy =                       -895.9622059243904459
  @DF-RKS Final Energy:  -895.96347094605505
    Total Energy =                       -895.9634709460550539
  @DF-RKS Final Energy:  -895.96417951511239
    Total Energy =                       -895.9641795151123915
  @DF-RKS Final Energy:  -895.96444031498299
    Total Energy =                       -895.9644403149828804
  @DF-RKS Final Energy:  -895.96440363922943
    Total Energy =                       -895.9644036392294311
  @DF-RKS Final Energy:  -895.96449122005572
    Total Energy =                       -895.9644912200557201
  Basis Set: (6-311G AUX)
    Blend: CC-PVTZ-JKFIT
  Basis Set: 6-311G
    Blend: 6-311G
  Basis Set: (6-311G AUX)
    Blend: CC-PVTZ-JKFIT
  @DF-RKS Final Energy:  -895.96453252110337
    Total Energy =                       -895.9645325211032514
  Basis Set: 6-311G
    Blend: 6-311G
  Basis Set: (6-311G AUX)
    Blend: CC-PVTZ-JKFIT
  Charge       = 0
  Multiplicity = 1
  Basis Set: 6-311G
    Blend: 6-311G
  Basis Set: (6-311G AUX)
    Blend: CC-PVTZ-JKFIT

    Orbital Energies [Eh]
    ---------------------

    Doubly Occupied:

       1A    -19.203532     2A    -14.461269     3A    -14.450085
       4A    -14.436490     5A    -10.390153     6A    -10.350362
       7A    -10.339086     8A    -10.327270     9A    -10.323926
      10A    -10.304957    11A    -10.294945    12A    -10.294901
      13A    -10.292719    14A    -10.292345    15A    -10.292047
      16A    -10.291366    17A    -10.290643    18A    -10.289650
      19A    -10.288744    20A    -10.288664    21A    -10.275594
      22A     -1.138591    23A     -1.057283    24A     -1.051431
      25A     -1.027700    26A     -0.969560    27A     -0.946440
      28A     -0.901461    29A     -0.868682    30A     -0.856662
      31A     -0.852652    32A     -0.831786    33A     -0.816432
      34A     -0.762921    35A     -0.724499    36A     -0.712986
      37A     -0.704804    38A     -0.700003    39A     -0.679354
      40A     -0.645346    41A     -0.630067    42A     -0.627670
      43A     -0.611637    44A     -0.598898    45A     -0.597176
      46A     -0.562790    47A     -0.556644    48A     -0.541980
      49A     -0.534596    50A     -0.530997    51A     -0.523732
      52A     -0.520198    53A     -0.515113    54A     -0.511184
      55A     -0.510420    56A     -0.492290    57A     -0.484044
      58A     -0.478117    59A     -0.469737    60A     -0.457520
      61A     -0.441117    62A     -0.432621    63A     -0.429398
      64A     -0.410428    65A     -0.404099    66A     -0.386736
      67A     -0.345412    68A     -0.336581    69A     -0.335401
      70A     -0.326556    71A     -0.317660    72A     -0.276093
      73A     -0.255090

  @DF-RKS Final Energy:  -895.96454292924966

   => Energetics <=

    Nuclear Repulsion Energy =           1541.6397717893371464
    One-Electron Energy =               -4276.6192569939912573
    Two-Electron Energy =                1926.7815231956012667
    DFT Exchange-Correlation Energy =     -87.7402585805996864
    Empirical Dispersion Energy =          -0.0263223395968026
    VV10 Nonlocal Energy =                  0.0000000000000000
    Total Energy =                       -895.9645429292495464

  Dipole Moment: [D]
     X:     3.7128      Y:    -1.3346      Z:     2.2093     Total:     4.5218

    Molecular point group: c1
  Basis Set: 6-311G
    Blend: 6-311G
  Basis Set: (6-311G AUX)
    Blend: CC-PVTZ-JKFIT

  -Total Gradient:
     Atom            X                  Y                   Z
    ------   -----------------  -----------------  -----------------
       1       -0.001928146695     0.004014867436     0.005011962615
       2        0.000451853478    -0.006514461409    -0.007178429515
       3        0.001999182150     0.013133985393     0.003656969062
       4       -0.002055646771    -0.003709699336    -0.003031801889
       5        0.000035387562     0.000044505354    -0.000010195141
       6        0.000287159200    -0.000300852175    -0.000285314439
       7        0.000115006407    -0.000350260292    -0.000134431484
       8       -0.000045876863    -0.000045484123     0.000088846850
       9       -0.000346494713     0.000346007139     0.000304683567
      10        0.002194434614    -0.003162555807     0.000906953678
      11       -0.000157835092    -0.000169472581     0.001528580161
      12        0.000186902290     0.000150764824    -0.003011338413
      13       -0.000014655069    -0.000078256045    -0.000020512455
      14        0.000061429708     0.000030170650     0.000013820078
      15       -0.000005460022     0.000049836571     0.000002472771
      16       -0.001156628910    -0.003636138048     0.002014605949
      17        0.000001061542    -0.000022019968    -0.000012807782
      18        0.000602285284     0.001729549822    -0.000751119003
      19        0.000045944982    -0.000011514531    -0.000028413228
      20       -0.001080187048    -0.003149821565     0.002019508760
      21        0.000054455852    -0.000098540401     0.000020824275
      22        0.000532469383     0.000395876603     0.000186466874
      23        0.000009072865    -0.000036627197    -0.000029384830
      24        0.000010299747     0.000012131078     0.000006433524
      25        0.000009830478    -0.000016830135     0.000002354772
      26        0.000006632081     0.000006874133     0.000008474168
      27        0.000008664718     0.000000354580     0.000009119723
      28        0.000007374812     0.000004824088     0.000010773327
      29        0.000008159139     0.000013523748    -0.000020320531
      30        0.000001810398     0.000011804083     0.000021620803
      31       -0.000000285578     0.000022160772    -0.000017904232
      32        0.000901102989     0.003210763910    -0.003325850048
      33       -0.000063535770    -0.000037998063    -0.000193266117
      34       -0.000097729483    -0.000080133963    -0.000026014904
      35       -0.000352984034    -0.001664822944     0.002183797477
      36       -0.000028585478    -0.000042319419    -0.000009375291

  **** Optimization is complete! (in 9 steps) ****
    Final optimized geometry and variables:
    Molecular point group: c1

    Geometry (in Angstrom), charge = 0, multiplicity = 1:

    C           -0.473957237542     1.578087044484    -0.428034888672
    C           -0.760524429495     0.468299213823     0.298024665066
    N            0.101162165197     0.121978016494     1.360663857743
    C            1.414575917574    -0.409414490738     1.134395901276
    H           -0.379609940911    -0.336401020124     2.121262277108
    C            0.633360373304     2.503645047513    -0.193936544681
    N           -0.424489347882     3.150884732457    -2.074862126020
    C           -1.147505316059     2.033798828163    -1.678146845664
    C            0.622302995610     3.421846247386    -1.178715394309
    C           -1.961832997873    -0.388479968005     0.143675029807
    C           -3.246138985238     0.165465059979     0.137377033929
    C           -1.819109007750    -1.777992190108     0.034365154623
    C           -4.364772677940    -0.651514106098     0.021795357448
    C           -2.939301348069    -2.593513119290    -0.094374595094
    C           -4.214443207641    -2.031840241443    -0.098698634860
    C            1.742305632215    -1.135929817919    -0.012147632562
    C            2.388881520578    -0.238246857327     2.118284947408
    C            3.017458218191    -1.660829300763    -0.178079506288
    C            3.651794894021    -0.800995474162     1.978556924182
    C            3.989061885493    -1.523031639538     0.824511121155
    H           -0.652705968747     3.673224500029    -2.897828724061
    O           -2.123053750098     1.575424079774    -2.296487602915
    H           -3.359023622523     1.237228019232     0.209319158152
    H           -0.832861608755    -2.221692303566     0.056846841071
    H           -5.352245584056    -0.211231612205     0.017575262453
    H           -2.816488408238    -3.663755322102    -0.190270987854
    H           -5.085641588714    -2.665629439355    -0.194440423062
    H            1.013322584609    -1.251099169655    -0.803151546930
    H            2.147561229320     0.341498562884     2.999418187531
    H            3.266361508959    -2.183569194708    -1.092696027029
    H            4.387927462734    -0.668528660993     2.761713977774
    N            5.268723420191    -2.037144419138     0.645953682119
    H            1.314776527567     2.453536890437     0.634784806673
    H            1.267019852077     4.268651618471    -1.334266277990
    H            5.401246465228    -2.837957609971     0.058293486119
    H            5.952718907414    -1.902453767271     1.365921711648

*** Psi4 exiting successfully. Buy a developer a beer!
