                               Psi4 1.3.2 release

  ==> Input File <==

--------------------------------------------------------------------------
molecule {
0 1
 C   -1.023706    2.168770    0.256784
 C   -0.416900    1.022743   -0.219029
 N    0.984708    0.896778   -0.015963
 C    1.802613   -0.217594    0.391016
 H    1.452910    1.369501   -0.790974
 C   -0.765910    3.535664   -0.164835
 N   -2.347872    3.598288    1.447012
 C   -2.095997    2.241042    1.312587
 C   -1.571321    4.346020    0.572911
 C   -1.123633   -0.131684   -0.834286
 C   -2.219682   -0.744882   -0.177197
 C   -0.693592   -0.656136   -2.078551
 C   -2.866451   -1.847117   -0.748865
 C   -1.342445   -1.759047   -2.647662
 C   -2.432298   -2.361904   -1.987061
 C    3.197651   -0.003354    0.540782
 C    1.301788   -1.511622    0.683938
 C    4.052838   -1.045666    0.923408
 C    2.161749   -2.549435    1.068850
 C    3.557599   -2.345676    1.183001
 H   -3.024810    3.949834    2.108926
 O   -2.687186    1.370380    1.964728
 H   -2.558875   -0.358621    0.786351
 H    0.152530   -0.198142   -2.592094
 H   -3.706631   -2.305258   -0.225194
 H   -0.996939   -2.150213   -3.605733
 H   -2.936116   -3.222451   -2.430619
 H    3.625505    0.985894    0.359834
 H    0.237078   -1.730375    0.623848
 H    5.120233   -0.835285    1.020921
 H    1.731786   -3.530349    1.283630
 N    4.430447   -3.405912    1.569590
 H   -0.060629    3.849738   -0.921046
 H   -1.669775    5.422951    0.560231
 H    5.378991   -3.305866    1.206894
 H    4.078104   -4.332363    1.326500
}
set optking {
  frozen_dihedral = ("
    1 2 3 4
    10 2 3 4
    1 2 10 11
    1 2 10 12
    3 2 10 11
    16 4 3 2
    18 20 32 35
  ")
}
set {
  geom_maxiter 400
  g_convergence GAU_LOOSE
  dynamic_level 1
}
memory 8.333333333333334GB
set_num_threads(1)
psi4_io.set_default_path("/scratch/bdw2292/Psi4-7_1_Index_0_GrowFragment_0-farH_in17")
for _ in range(1):
  try:
    set opt_coordinates both
    optimize('wb97x-d/6-311G')
    break
  except OptimizationConvergenceError:
    break
  else:
    try:
      set opt_coordinates cartesian
      optimize('wb97x-d/6-311G')
      break
    except OptimizationConvergenceError:
      pass
clean()
--------------------------------------------------------------------------

    Molecular point group: c1
  Charge       = 0
  Multiplicity = 1
  Basis Set: 6-311G
    Blend: 6-311G
  Basis Set: (6-311G AUX)
    Blend: CC-PVTZ-JKFIT
  @DF-RKS Final Energy:  -895.88368527969578
    Total Energy =                       -895.8836852796957828
    Molecular point group: c1
  Basis Set: 6-311G
    Blend: 6-311G
  Basis Set: (6-311G AUX)
    Blend: CC-PVTZ-JKFIT
  Basis Set: 6-311G
    Blend: 6-311G
  Basis Set: (6-311G AUX)
    Blend: CC-PVTZ-JKFIT
  @DF-RKS Final Energy:  -895.90987003707710
    Total Energy =                       -895.9098700370769848
  Basis Set: 6-311G
    Blend: 6-311G
  Basis Set: (6-311G AUX)
    Blend: CC-PVTZ-JKFIT
  Basis Set: 6-311G
    Blend: 6-311G
  @DF-RKS Final Energy:  -895.92277660403954
    Total Energy =                       -895.9227766040395409
  @DF-RKS Final Energy:  -895.77116338684334
    Total Energy =                       -895.7711633868433410
  @DF-RKS Final Energy:  -895.91078821367887
    Total Energy =                       -895.9107882136788703
  @DF-RKS Final Energy:  -895.94149822425481
    Total Energy =                       -895.9414982242548149
  @DF-RKS Final Energy:  -895.95088794941432
    Total Energy =                       -895.9508879494142093
  @DF-RKS Final Energy:  -895.96117230058724
    Total Energy =                       -895.9611723005873500
  @DF-RKS Final Energy:  -895.96722316750811
    Total Energy =                       -895.9672231675079956
  @DF-RKS Final Energy:  -895.96971804973543
    Total Energy =                       -895.9697180497353202
  @DF-RKS Final Energy:  -895.97065802963095
    Total Energy =                       -895.9706580296310676
  Basis Set: (6-311G AUX)
    Blend: CC-PVTZ-JKFIT
  Basis Set: 6-311G
    Blend: 6-311G
  Basis Set: (6-311G AUX)
    Blend: CC-PVTZ-JKFIT
  @DF-RKS Final Energy:  -895.97074624248444
    Total Energy =                       -895.9707462424845517
  Basis Set: 6-311G
    Blend: 6-311G
  Basis Set: (6-311G AUX)
    Blend: CC-PVTZ-JKFIT
  Charge       = 0
  Multiplicity = 1
  Basis Set: 6-311G
    Blend: 6-311G
  Basis Set: (6-311G AUX)
    Blend: CC-PVTZ-JKFIT

    Orbital Energies [Eh]
    ---------------------

    Doubly Occupied:

       1A    -19.195898     2A    -14.473726     3A    -14.460544
       4A    -14.434905     5A    -10.385269     6A    -10.360234
       7A    -10.337080     8A    -10.336383     9A    -10.324939
      10A    -10.304341    11A    -10.296238    12A    -10.291907
      13A    -10.291738    14A    -10.291731    15A    -10.290832
      16A    -10.290353    17A    -10.290046    18A    -10.289841
      19A    -10.289000    20A    -10.288212    21A    -10.281954
      22A     -1.132994    23A     -1.071143    24A     -1.052162
      25A     -1.026349    26A     -0.970135    27A     -0.950861
      28A     -0.903958    29A     -0.870496    30A     -0.856522
      31A     -0.852036    32A     -0.840021    33A     -0.813850
      34A     -0.766731    35A     -0.729294    36A     -0.716571
      37A     -0.708736    38A     -0.693651    39A     -0.681977
      40A     -0.661185    41A     -0.637758    42A     -0.622727
      43A     -0.611326    44A     -0.600633    45A     -0.598735
      46A     -0.562805    47A     -0.555796    48A     -0.545416
      49A     -0.531684    50A     -0.530782    51A     -0.523980
      52A     -0.520835    53A     -0.515365    54A     -0.512754
      55A     -0.510061    56A     -0.494590    57A     -0.488266
      58A     -0.482114    59A     -0.471950    60A     -0.456956
      61A     -0.449467    62A     -0.433423    63A     -0.429945
      64A     -0.427844    65A     -0.401737    66A     -0.389697
      67A     -0.343760    68A     -0.337634    69A     -0.335060
      70A     -0.327127    71A     -0.313805    72A     -0.277567
      73A     -0.244619

  @DF-RKS Final Energy:  -895.97080881143768

   => Energetics <=

    Nuclear Repulsion Energy =           1542.2820432237056139
    One-Electron Energy =               -4277.6912388389355328
    Two-Electron Energy =                1927.2119167848888992
    DFT Exchange-Correlation Energy =     -87.7475073989969729
    Empirical Dispersion Energy =          -0.0260225820998091
    VV10 Nonlocal Energy =                  0.0000000000000000
    Total Energy =                       -895.9708088114375641

  Dipole Moment: [D]
     X:     3.9343      Y:    -0.8520      Z:    -2.3392     Total:     4.6558

    Molecular point group: c1
  Basis Set: 6-311G
    Blend: 6-311G
  Basis Set: (6-311G AUX)
    Blend: CC-PVTZ-JKFIT

  -Total Gradient:
     Atom            X                  Y                   Z
    ------   -----------------  -----------------  -----------------
       1        0.004553591214    -0.003510863326     0.003284994838
       2       -0.009060815746     0.010770926774    -0.007174935141
       3       -0.000219636819    -0.004232387423    -0.001076627036
       4        0.001597860665    -0.000168271366     0.000984515394
       5       -0.000028030512    -0.000063904944    -0.000033553838
       6       -0.000105904580    -0.000042562930     0.000040796515
       7       -0.000239967447     0.000002933400    -0.000205403589
       8       -0.000681131038    -0.000706201634    -0.000066092768
       9       -0.000146315901    -0.000056619829     0.000123689119
      10        0.002988092518    -0.002902625749     0.002837508465
      11        0.001117019290    -0.001068841433    -0.000694960966
      12       -0.001680937891     0.000807142716     0.000288810021
      13        0.000032237529     0.000157573918    -0.000139877951
      14        0.000007015294    -0.000129612540     0.000078251934
      15       -0.000002292624     0.000087100320    -0.000076329994
      16        0.001108940600     0.000150379746     0.001408856980
      17        0.000246717995    -0.000106140929    -0.000051180126
      18        0.000965131329     0.000049591594     0.001351197199
      19       -0.000082513237    -0.000038219976     0.000112833714
      20       -0.002224897192    -0.000298808943    -0.002351016864
      21       -0.000100901920     0.000199979033     0.000352231702
      22        0.001223030540     0.000724754671     0.000053663881
      23        0.000033930117     0.000064893922     0.000081965204
      24        0.000007509622     0.000078819489    -0.000110920258
      25       -0.000040850081    -0.000097641519     0.000137366837
      26       -0.000058784706    -0.000028661665    -0.000084318908
      27       -0.000007195528    -0.000029967072    -0.000007652705
      28        0.000008534493     0.000016550693    -0.000026940807
      29       -0.000199789792    -0.000009032901     0.000176383060
      30        0.000124638997     0.000064063683    -0.000083937865
      31       -0.000020375238    -0.000031906062     0.000037924660
      32        0.003209888103     0.001146726558     0.002404316811
      33       -0.000003225834    -0.000012332979    -0.000007119716
      34       -0.000153676152    -0.000089765959    -0.000099246595
      35       -0.001775202104    -0.000833417892    -0.001260418135
      36       -0.000133222916    -0.000046481702    -0.000049337602

  **** Optimization is complete! (in 13 steps) ****
    Final optimized geometry and variables:
    Molecular point group: c1

    Geometry (in Angstrom), charge = 0, multiplicity = 1:

    C           -0.325631760946     1.832381773466     1.340664030322
    C           -0.332536325674     0.915289277119     0.325474812314
    N            0.697652642059     0.931866572792    -0.599095158352
    C            1.430192453926    -0.138342650420    -1.178051163639
    H            1.165690485418     1.820202764264    -0.675433569698
    C            0.734736382885     2.785108415601     1.670611963983
    N           -1.021965127415     3.220855867037     3.003149395210
    C           -1.466017635858     2.146010590026     2.235080803940
    C            0.286168241500     3.580193869509     2.664733658074
    C           -1.332176163362    -0.173501446152     0.209286338888
    C           -1.590172881398    -1.028340338124     1.283325650236
    C           -2.005527902728    -0.364653309833    -1.001044081892
    C           -2.497724471521    -2.071682679036     1.142620977136
    C           -2.920475820503    -1.403699746443    -1.137845475991
    C           -3.163784111604    -2.262031894943    -0.067617475712
    C            2.456293678271     0.200281692813    -2.068741774408
    C            1.235517516457    -1.488950581233    -0.877763360148
    C            3.256328379380    -0.771636284882    -2.650501866723
    C            2.020472342227    -2.464715010156    -1.482162234383
    C            3.040237320784    -2.130727802472    -2.381737740837
    H           -1.595315409522     3.650717131560     3.703032529829
    O           -2.598958242909     1.643135653206     2.336270592705
    H           -1.081084018823    -0.866430004274     2.222917220842
    H           -1.799891377487     0.297808184634    -1.831151159365
    H           -2.693289164807    -2.729811682611     1.978224742391
    H           -3.442199696988    -1.542627424312    -2.074993309427
    H           -3.872545172861    -3.072302399095    -0.173311786210
    H            2.635252515188     1.242190315633    -2.307752989147
    H            0.471733469639    -1.795785704858    -0.182335820800
    H            4.058584506745    -0.477171655985    -3.315201657023
    H            1.837789622927    -3.504842999339    -1.242485921673
    N            3.854662422079    -3.107050310641    -2.948554225459
    H            1.728902142638     2.806842832156     1.257937090203
    H            0.793011234281     4.368804205580     3.191849482863
    H            4.288032037261    -2.931163172006    -3.835136970463
    H            3.680580153409    -4.069441796701    -2.728879895444

*** Psi4 exiting successfully. Buy a developer a beer!
