                               Psi4 1.3.2 release

  ==> Input File <==

--------------------------------------------------------------------------
molecule {
0 1
 C   -0.682475    1.556853    0.235624
 C   -0.799197    0.183130    0.381279
 N    0.143164   -0.493281    1.202493
 C    1.520920   -0.737458    0.874272
 H   -0.281642   -1.305130    1.651892
 C    0.288531    2.430614    0.879306
 N   -1.004536    3.722939   -0.439142
 C   -1.530758    2.454314   -0.632393
 C    0.058543    3.698978    0.449275
 C   -1.891242   -0.666318   -0.172502
 C   -3.250297   -0.331876    0.055953
 C   -1.595396   -1.871440   -0.859684
 C   -4.277530   -1.160951   -0.411414
 C   -2.625165   -2.696478   -1.328671
 C   -3.972418   -2.346071   -1.110046
 C    2.464416   -0.856106    1.921887
 C    1.981056   -0.860585   -0.460013
 C    3.817798   -1.091319    1.645356
 C    3.335744   -1.097362   -0.730787
 C    4.286430   -1.208713    0.313695
 H   -1.384658    4.532037   -0.908919
 O   -2.491590    2.237502   -1.372454
 H   -3.501889    0.580817    0.597507
 H   -0.555936   -2.161371   -1.018449
 H   -5.316452   -0.883942   -0.227283
 H   -2.376058   -3.616352   -1.859706
 H   -4.774137   -2.989403   -1.476487
 H    2.141505   -0.766539    2.961380
 H    1.286877   -0.767952   -1.297369
 H    4.513492   -1.185682    2.482071
 H    3.650614   -1.194590   -1.772204
 N    5.664646   -1.450467    0.035920
 H    1.058141    2.119646    1.571503
 H    0.568591    4.619062    0.698942
 H    6.294022   -1.081100    0.749489
 H    5.962650   -1.106757   -0.877685
}
set optking {
  frozen_dihedral = ("
    16 4 3 2
    1 2 10 11
    1 2 10 12
    3 2 10 11
    1 2 3 4
    10 2 3 4
    18 20 32 35
  ")
}
set {
  geom_maxiter 400
  g_convergence GAU_LOOSE
  dynamic_level 1
}
memory 8.333333333333334GB
set_num_threads(1)
psi4_io.set_default_path("/scratch/bdw2292/Psi4-7_1_Index_0_GrowFragment_0-farH_in17")
for _ in range(1):
  try:
    set opt_coordinates both
    optimize('wb97x-d/6-311G')
    break
  except OptimizationConvergenceError:
    break
  else:
    try:
      set opt_coordinates cartesian
      optimize('wb97x-d/6-311G')
      break
    except OptimizationConvergenceError:
      pass
clean()
--------------------------------------------------------------------------

    Molecular point group: c1
  Charge       = 0
  Multiplicity = 1
  Basis Set: 6-311G
    Blend: 6-311G
  Basis Set: (6-311G AUX)
    Blend: CC-PVTZ-JKFIT
  @DF-RKS Final Energy:  -895.95479421855703
    Total Energy =                       -895.9547942185571401
    Molecular point group: c1
  Basis Set: 6-311G
    Blend: 6-311G
  Basis Set: (6-311G AUX)
    Blend: CC-PVTZ-JKFIT
  Basis Set: 6-311G
    Blend: 6-311G
  Basis Set: (6-311G AUX)
    Blend: CC-PVTZ-JKFIT
  @DF-RKS Final Energy:  -895.96267978211267
    Total Energy =                       -895.9626797821126729
  Basis Set: 6-311G
    Blend: 6-311G
  Basis Set: (6-311G AUX)
    Blend: CC-PVTZ-JKFIT
  Basis Set: 6-311G
    Blend: 6-311G
  @DF-RKS Final Energy:  -895.96420846476155
    Total Energy =                       -895.9642084647615548
  @DF-RKS Final Energy:  -895.96464800311480
    Total Energy =                       -895.9646480031148030
  @DF-RKS Final Energy:  -895.96430402636054
    Total Energy =                       -895.9643040263605371
  @DF-RKS Final Energy:  -895.96464797596332
    Total Energy =                       -895.9646479759634303
  @DF-RKS Final Energy:  -895.96441603064318
    Total Energy =                       -895.9644160306430649
  @DF-RKS Final Energy:  -895.96475234618731
    Total Energy =                       -895.9647523461874243
  @DF-RKS Final Energy:  -895.96482426404930
    Total Energy =                       -895.9648242640492981
  Basis Set: (6-311G AUX)
    Blend: CC-PVTZ-JKFIT
  Basis Set: 6-311G
    Blend: 6-311G
  Basis Set: (6-311G AUX)
    Blend: CC-PVTZ-JKFIT
  @DF-RKS Final Energy:  -895.96483522254459
    Total Energy =                       -895.9648352225444796
  Basis Set: 6-311G
    Blend: 6-311G
  Basis Set: (6-311G AUX)
    Blend: CC-PVTZ-JKFIT
  Charge       = 0
  Multiplicity = 1
  Basis Set: 6-311G
    Blend: 6-311G
  Basis Set: (6-311G AUX)
    Blend: CC-PVTZ-JKFIT

    Orbital Energies [Eh]
    ---------------------

    Doubly Occupied:

       1A    -19.204314     2A    -14.462121     3A    -14.450433
       4A    -14.436285     5A    -10.390935     6A    -10.350762
       7A    -10.338774     8A    -10.327040     9A    -10.324860
      10A    -10.305132    11A    -10.295378    12A    -10.294969
      13A    -10.292537    14A    -10.292498    15A    -10.291876
      16A    -10.291444    17A    -10.290849    18A    -10.288948
      19A    -10.288930    20A    -10.288807    21A    -10.276462
      22A     -1.139147    23A     -1.057775    24A     -1.051896
      25A     -1.027584    26A     -0.969658    27A     -0.946230
      28A     -0.901917    29A     -0.869000    30A     -0.856477
      31A     -0.852760    32A     -0.831669    33A     -0.816993
      34A     -0.763398    35A     -0.724314    36A     -0.713316
      37A     -0.704967    38A     -0.699751    39A     -0.679992
      40A     -0.645341    41A     -0.629904    42A     -0.627763
      43A     -0.611096    44A     -0.599466    45A     -0.597574
      46A     -0.562867    47A     -0.556858    48A     -0.541338
      49A     -0.535170    50A     -0.531217    51A     -0.523562
      52A     -0.520707    53A     -0.515025    54A     -0.511299
      55A     -0.511107    56A     -0.492521    57A     -0.482319
      58A     -0.481078    59A     -0.468818    60A     -0.457866
      61A     -0.440618    62A     -0.432821    63A     -0.429522
      64A     -0.410821    65A     -0.404815    66A     -0.387129
      67A     -0.345835    68A     -0.336648    69A     -0.335237
      70A     -0.326863    71A     -0.318209    72A     -0.276481
      73A     -0.255045

  @DF-RKS Final Energy:  -895.96484769689846

   => Energetics <=

    Nuclear Repulsion Energy =           1543.0734282449391230
    One-Electron Energy =               -4279.4597903348503678
    Two-Electron Energy =                1928.1875078851662693
    DFT Exchange-Correlation Energy =     -87.7395824757192742
    Empirical Dispersion Energy =          -0.0264110164343527
    VV10 Nonlocal Energy =                  0.0000000000000000
    Total Energy =                       -895.9648476968984596

  Dipole Moment: [D]
     X:     4.1515      Y:     0.3041      Z:     0.7964     Total:     4.2381

    Molecular point group: c1
  Basis Set: 6-311G
    Blend: 6-311G
  Basis Set: (6-311G AUX)
    Blend: CC-PVTZ-JKFIT

  -Total Gradient:
     Atom            X                  Y                   Z
    ------   -----------------  -----------------  -----------------
       1       -0.001320837234     0.000850572109     0.005995222409
       2        0.001192542181    -0.003568764266    -0.008273802727
       3        0.000407100398     0.013779493801     0.008436434890
       4       -0.002099880789    -0.013587175646    -0.003126282190
       5        0.000008020791    -0.000032119671    -0.000018537304
       6       -0.000142377493    -0.000165606509     0.000125797724
       7        0.000095293088    -0.000005313584     0.000145297986
       8       -0.000212543330    -0.000007963900    -0.000218308821
       9       -0.000024578341     0.000085422324    -0.000170318734
      10        0.001630058227     0.000139079298    -0.004132867870
      11        0.000381525476    -0.001579253865     0.002474086565
      12       -0.000122926883     0.000654520849    -0.001237345306
      13        0.000015831643     0.000048069285    -0.000023794829
      14        0.000026933283     0.000019838611     0.000017984309
      15       -0.000035230552    -0.000023406174    -0.000001425599
      16        0.000037479798     0.003481573852    -0.000273590554
      17       -0.000065278760    -0.000198304032     0.000039330697
      18        0.000010378171    -0.001880463172    -0.000104147390
      19        0.000064343473     0.000114492314    -0.000005462770
      20        0.000088092099     0.003548482475    -0.000345571728
      21       -0.000004675308     0.000012942268    -0.000036060285
      22        0.000058787577     0.000072872200     0.000083215092
      23       -0.000010631288     0.000005397232    -0.000001913793
      24        0.000001318386    -0.000006315579    -0.000002764747
      25       -0.000008775637     0.000008716748     0.000002883489
      26        0.000006671315    -0.000002848734     0.000000919650
      27       -0.000001415068     0.000011287125     0.000000719118
      28        0.000043607567     0.000016868698     0.000000774238
      29        0.000032957807     0.000050023984    -0.000041519274
      30       -0.000001423831     0.000042181012     0.000034699752
      31       -0.000041042802     0.000016136556     0.000000579919
      32        0.000188500121    -0.004117000020     0.001708511710
      33       -0.000007351545     0.000048108690     0.000002671013
      34       -0.000005960870     0.000017742426    -0.000050105007
      35       -0.000293715448     0.002353988814    -0.001160479708
      36        0.000049333082     0.000007722295    -0.000065072605

  **** Optimization is complete! (in 5 steps) ****
    Final optimized geometry and variables:
    Molecular point group: c1

    Geometry (in Angstrom), charge = 0, multiplicity = 1:

    C           -0.804224908060     1.422008329609     0.340215292879
    C           -0.766606749195     0.078834610057     0.528021438040
    N            0.310434096672    -0.467242950884     1.258886523252
    C            1.635484937731    -0.545478161678     0.714134485171
    H            0.050155474269    -1.292631781607     1.779837125760
    C            0.148494212282     2.397747540858     0.866391947741
    N           -1.315550577320     3.497520980871    -0.446822787802
    C           -1.754249562287     2.181944215906    -0.523389468994
    C           -0.189917425579     3.609371142636     0.385416030672
    C           -1.814027975030    -0.885538195456     0.112899692049
    C           -3.154765375117    -0.690662844292     0.460638315585
    C           -1.449260276122    -2.058057289014    -0.562192775708
    C           -4.115018876108    -1.635564910364     0.118417076327
    C           -2.413384000480    -2.997570979665    -0.914765849352
    C           -3.748247730440    -2.788290807290    -0.574240992881
    C            2.728338446165    -0.518614334647     1.583430125892
    C            1.875660685977    -0.562399660219    -0.660060908912
    C            4.027525954070    -0.586954870119     1.098460399482
    C            3.175255483955    -0.585112391724    -1.152586909307
    C            4.274453051105    -0.606925503434    -0.282814913615
    H           -1.772005929658     4.244349452332    -0.932938113471
    O           -2.728694193466     1.806224021977    -1.197318326649
    H           -3.439067225992     0.210851520422     0.983159426293
    H           -0.410922428726    -2.235359994879    -0.809746637788
    H           -5.149046377708    -1.470917637196     0.388093413295
    H           -2.122597656713    -3.891279948943    -1.449951630034
    H           -4.497415899809    -3.520534476593    -0.843307272409
    H            2.549414344504    -0.456339736780     2.648743048626
    H            1.046070891820    -0.524802627571    -1.353438156582
    H            4.860779482869    -0.606346887059     1.789410409248
    H            3.339047386364    -0.582505739325    -2.222964252518
    N            5.574870045671    -0.686887030739    -0.768665186839
    H            0.961388639579     2.170021361373     1.530898301894
    H            0.261957345588     4.569244115659     0.563722832128
    H            6.328015657565    -0.310561458586    -0.224945502507
    H            5.722268695184    -0.718543143622    -1.759637764421

*** Psi4 exiting successfully. Buy a developer a beer!
