                               Psi4 1.3.2 release

  ==> Input File <==

--------------------------------------------------------------------------
molecule {
0 1
 C   -0.712602    1.600978    0.121385
 C   -0.797142    0.235584    0.344185
 N    0.181955   -0.389341    1.163276
 C    1.562234   -0.655979    0.854447
 H   -0.241090   -1.146667    1.700988
 C    0.211823    2.538401    0.742638
 N   -1.081576    3.714237   -0.680402
 C   -1.562064    2.420509   -0.818804
 C   -0.043503    3.773115    0.235641
 C   -1.895212   -0.653575   -0.124307
 C   -3.252973   -0.335894    0.130815
 C   -1.591180   -1.884009   -0.760473
 C   -4.274151   -1.211242   -0.260130
 C   -2.614544   -2.757212   -1.149371
 C   -3.962469   -2.425693   -0.904372
 C    2.366502   -1.332905    1.804988
 C    2.158656   -0.286036   -0.378032
 C    3.710881   -1.622458    1.534998
 C    3.504382   -0.576898   -0.640687
 C    4.313865   -1.242720    0.311497
 H   -1.473549    4.483611   -1.204074
 O   -2.494144    2.131545   -1.569736
 H   -3.507396    0.597603    0.634280
 H   -0.549021   -2.150682   -0.943685
 H   -5.313305   -0.947225   -0.058470
 H   -2.360723   -3.698759   -1.638763
 H   -4.759994   -3.105394   -1.209510
 H    1.945050   -1.638533    2.765644
 H    1.579606    0.228429   -1.146817
 H    4.292113   -2.153270    2.292287
 H    3.923977   -0.280911   -1.604657
 N    5.681941   -1.540214    0.038379
 H    0.969608    2.289607    1.471927
 H    0.431602    4.721078    0.447036
 H    6.263690   -1.594441    0.874988
 H    6.114519   -0.895988   -0.624478
}
set optking {
  frozen_dihedral = ("
    1 2 3 4
    10 2 3 4
    1 2 10 11
    1 2 10 12
    3 2 10 11
    16 4 3 2
    18 20 32 35
  ")
}
set {
  geom_maxiter 400
  g_convergence GAU_LOOSE
  dynamic_level 1
}
memory 8.333333333333334GB
set_num_threads(1)
psi4_io.set_default_path("/scratch/bdw2292/Psi4-7_1_Index_0_GrowFragment_0-farH_in17")
for _ in range(1):
  try:
    set opt_coordinates both
    optimize('wb97x-d/6-311G')
    break
  except OptimizationConvergenceError:
    break
  else:
    try:
      set opt_coordinates cartesian
      optimize('wb97x-d/6-311G')
      break
    except OptimizationConvergenceError:
      pass
clean()
--------------------------------------------------------------------------

    Molecular point group: c1
  Charge       = 0
  Multiplicity = 1
  Basis Set: 6-311G
    Blend: 6-311G
  Basis Set: (6-311G AUX)
    Blend: CC-PVTZ-JKFIT
  @DF-RKS Final Energy:  -895.95648376058068
    Total Energy =                       -895.9564837605806815
    Molecular point group: c1
  Basis Set: 6-311G
    Blend: 6-311G
  Basis Set: (6-311G AUX)
    Blend: CC-PVTZ-JKFIT
  Basis Set: 6-311G
    Blend: 6-311G
  Basis Set: (6-311G AUX)
    Blend: CC-PVTZ-JKFIT
  @DF-RKS Final Energy:  -895.96439609634456
    Total Energy =                       -895.9643960963445579
  Basis Set: 6-311G
    Blend: 6-311G
  Basis Set: (6-311G AUX)
    Blend: CC-PVTZ-JKFIT
  Basis Set: 6-311G
    Blend: 6-311G
  @DF-RKS Final Energy:  -895.96584709388992
    Total Energy =                       -895.9658470938899200
  @DF-RKS Final Energy:  -895.96542934246077
    Total Energy =                       -895.9654293424607658
  @DF-RKS Final Energy:  -895.96671839086196
    Total Energy =                       -895.9667183908620700
  Basis Set: (6-311G AUX)
    Blend: CC-PVTZ-JKFIT
  Basis Set: 6-311G
    Blend: 6-311G
  Basis Set: (6-311G AUX)
    Blend: CC-PVTZ-JKFIT
  @DF-RKS Final Energy:  -895.96676992913524
    Total Energy =                       -895.9667699291351255
  Basis Set: 6-311G
    Blend: 6-311G
  Basis Set: (6-311G AUX)
    Blend: CC-PVTZ-JKFIT
  Charge       = 0
  Multiplicity = 1
  Basis Set: 6-311G
    Blend: 6-311G
  Basis Set: (6-311G AUX)
    Blend: CC-PVTZ-JKFIT

    Orbital Energies [Eh]
    ---------------------

    Doubly Occupied:

       1A    -19.207562     2A    -14.465032     3A    -14.456643
       4A    -14.431825     5A    -10.394080     6A    -10.353596
       7A    -10.333093     8A    -10.330811     9A    -10.328330
      10A    -10.305504    11A    -10.298735    12A    -10.294844
      13A    -10.292955    14A    -10.291813    15A    -10.291549
      16A    -10.291076    17A    -10.289506    18A    -10.287725
      19A    -10.287436    20A    -10.286392    21A    -10.279343
      22A     -1.142827    23A     -1.062419    24A     -1.056361
      25A     -1.022965    26A     -0.970508    27A     -0.945193
      28A     -0.905400    29A     -0.870838    30A     -0.854441
      31A     -0.853170    32A     -0.832186    33A     -0.818780
      34A     -0.766388    35A     -0.724967    36A     -0.713995
      37A     -0.704710    38A     -0.699575    39A     -0.682452
      40A     -0.647786    41A     -0.632323    42A     -0.626239
      43A     -0.606377    44A     -0.601915    45A     -0.597117
      46A     -0.563433    47A     -0.558275    48A     -0.542423
      49A     -0.535179    50A     -0.530711    51A     -0.523104
      52A     -0.518419    53A     -0.514225    54A     -0.513321
      55A     -0.510029    56A     -0.495211    57A     -0.483680
      58A     -0.483478    59A     -0.470193    60A     -0.458837
      61A     -0.441176    62A     -0.431185    63A     -0.429394
      64A     -0.425257    65A     -0.407778    66A     -0.385477
      67A     -0.348146    68A     -0.338529    69A     -0.334162
      70A     -0.327971    71A     -0.320176    72A     -0.275861
      73A     -0.249977

  @DF-RKS Final Energy:  -895.96680102425375

   => Energetics <=

    Nuclear Repulsion Energy =           1541.6312345435417228
    One-Electron Energy =               -4276.4584760416892095
    Two-Electron Energy =                1926.6308068461999028
    DFT Exchange-Correlation Energy =     -87.7441710749638730
    Empirical Dispersion Energy =          -0.0261952973423174
    VV10 Nonlocal Energy =                  0.0000000000000000
    Total Energy =                       -895.9668010242537548

  Dipole Moment: [D]
     X:     3.6611      Y:    -0.0004      Z:     1.6831     Total:     4.0294

    Molecular point group: c1
  Basis Set: 6-311G
    Blend: 6-311G
  Basis Set: (6-311G AUX)
    Blend: CC-PVTZ-JKFIT

  -Total Gradient:
     Atom            X                  Y                   Z
    ------   -----------------  -----------------  -----------------
       1       -0.002682133194     0.001560295436     0.005265202949
       2        0.003210181041    -0.005931144203    -0.008971519959
       3        0.000124132846     0.011531994964     0.007967794265
       4       -0.001615346215    -0.006721414558    -0.003085142390
       5       -0.000054420288    -0.000025395956    -0.000011063902
       6        0.000404484952     0.000002058285    -0.000521122046
       7       -0.000286598498    -0.000357690199    -0.000422402563
       8       -0.000212788580     0.000387567473    -0.000127892646
       9       -0.000347762121    -0.000329566430     0.000294468566
      10        0.000536504545     0.001186410918    -0.003038094610
      11       -0.000031162917    -0.001260670347     0.002044355164
      12        0.000052553163     0.000035506174    -0.000209821878
      13        0.000107214667     0.000095131859     0.000095917309
      14        0.000123793950     0.000017648666     0.000006367612
      15       -0.000016822002    -0.000003816069    -0.000030554308
      16        0.000116038471     0.000213335186     0.000053179165
      17       -0.000137608596     0.000174286769     0.000166151651
      18       -0.000521238154    -0.001227791678    -0.000698222884
      19        0.000032166724    -0.000108484840     0.000068858216
      20        0.000668821747     0.002858005033     0.001153490568
      21        0.000209351641    -0.000496316528     0.000261953288
      22        0.000627419978     0.000212208673     0.000361589946
      23       -0.000014235676    -0.000021314979    -0.000062572242
      24       -0.000004614209    -0.000017497175    -0.000030383183
      25        0.000021126998     0.000019148200    -0.000027124270
      26        0.000028434110     0.000024917992     0.000011222682
      27        0.000030204775     0.000051928846     0.000011243388
      28        0.000004071014     0.000005943401    -0.000024587873
      29        0.000128516465    -0.000094081930    -0.000010035802
      30       -0.000017602260     0.000011385558     0.000004979295
      31       -0.000045090890    -0.000049230708     0.000023624296
      32       -0.000777045149    -0.003737755484    -0.000483125372
      33       -0.000024833574    -0.000027243842    -0.000088306996
      34       -0.000127754586    -0.000135154165    -0.000040003040
      35        0.000413000894     0.002125788085     0.000092804611
      36        0.000059721969     0.000134768971    -0.000033259675

  **** Optimization is complete! (in 7 steps) ****
    Final optimized geometry and variables:
    Molecular point group: c1

    Geometry (in Angstrom), charge = 0, multiplicity = 1:

    C           -0.715522114494     1.552072474780     0.184308608447
    C           -0.816693681829     0.216142530015     0.397449887188
    N            0.105099870815    -0.411436858361     1.259100535223
    C            1.473268936507    -0.638414802855     0.926650394155
    H           -0.302157555553    -1.182330296229     1.767218096469
    C            0.257747289159     2.455218163262     0.794914739920
    N           -0.927668721158     3.632348752050    -0.717299231261
    C           -1.481977368929     2.362659268348    -0.806401273503
    C            0.095119230258     3.672740731172     0.243660852859
    C           -1.887022393698    -0.664805964807    -0.124656917866
    C           -3.239768795184    -0.359518498470     0.048442997182
    C           -1.528420728536    -1.876508695892    -0.730977426884
    C           -4.218442567278    -1.242014315116    -0.394637452638
    C           -2.509337599928    -2.751243619276    -1.186850461940
    C           -3.856467355523    -2.435824437835    -1.016537711675
    C            2.286390617883    -1.308288714189     1.845790124412
    C            2.037549887383    -0.211890356557    -0.276378374236
    C            3.618745460347    -1.572897955295     1.559398346752
    C            3.380629487469    -0.448593820116    -0.549386547489
    C            4.197031526379    -1.131916747962     0.360230936511
    H           -1.249413037939     4.398359585984    -1.274852262409
    O           -2.402016621744     2.052502984970    -1.580760983181
    H           -3.516814638166     0.574012462325     0.515536680186
    H           -0.480825135383    -2.120909012047    -0.854836011292
    H           -5.262693670753    -0.996459370996    -0.259703517430
    H           -2.224371182626    -3.675077968759    -1.671393863897
    H           -4.620445594291    -3.117316960815    -1.365367925344
    H            1.868230011900    -1.632889589976     2.790596032074
    H            1.434161633383     0.315124748842    -1.001417950610
    H            4.220128551786    -2.123649457608     2.271510627863
    H            3.797697469561    -0.099132334428    -1.485663033368
    N            5.529984654669    -1.412862845192     0.066399244996
    H            0.958782967874     2.179417151530     1.560925839835
    H            0.612225448998     4.593014373082     0.449751407794
    H            6.184391734164    -1.527693925385     0.816771830496
    H            5.911543009824    -1.092208669514    -0.803256773350

*** Psi4 exiting successfully. Buy a developer a beer!
