                               Psi4 1.3.2 release

  ==> Input File <==

--------------------------------------------------------------------------
molecule {
0 1
 C   -0.807272    1.607545   -1.305878
 C   -0.643050    0.302655   -0.868922
 N    0.573329   -0.368707   -1.191388
 C    1.651924   -0.714071   -0.302704
 H    0.944680   -0.051431   -2.095714
 C   -1.507055    2.713621   -0.674088
 N   -0.683967    3.464568   -2.641828
 C   -0.279303    2.140437   -2.613238
 C   -1.400872    3.790690   -1.498966
 C   -1.566038   -0.494901   -0.019438
 C   -2.066176   -0.006792    1.214131
 C   -1.935321   -1.798706   -0.435797
 C   -2.929592   -0.789634    1.990765
 C   -2.798199   -2.578734    0.342750
 C   -3.304079   -2.078370    1.559492
 C    2.804210   -1.348898   -0.830844
 C    1.626218   -0.436001    1.087288
 C    3.881571   -1.691322   -0.003176
 C    2.707074   -0.781822    1.910205
 C    3.855299   -1.424486    1.386718
 H   -0.460697    4.074463   -3.414948
 O    0.381130    1.584135   -3.502426
 H   -1.770697    0.981944    1.567078
 H   -1.541574   -2.193342   -1.373418
 H   -3.309024   -0.395332    2.934685
 H   -3.077346   -3.576353    0.000727
 H   -3.979001   -2.686153    2.164761
 H    2.866112   -1.578478   -1.897336
 H    0.765220    0.056761    1.539345
 H    4.753291   -2.171210   -0.453330
 H    2.650783   -0.542982    2.974588
 N    4.956471   -1.771330    2.225474
 H   -2.024904    2.686237    0.272855
 H   -1.785735    4.794407   -1.379873
 H    5.487029   -2.575202    1.887782
 H    4.691324   -1.934553    3.197300
}
set optking {
  frozen_dihedral = ("
    1 2 3 4
    10 2 3 4
    1 2 10 11
    1 2 10 12
    3 2 10 11
    16 4 3 2
    18 20 32 35
  ")
}
set {
  geom_maxiter 400
  g_convergence GAU_LOOSE
  dynamic_level 1
}
memory 8.333333333333334GB
set_num_threads(1)
psi4_io.set_default_path("/scratch/bdw2292/Psi4-7_1_Index_0_GrowFragment_0-farH_in17")
for _ in range(1):
  try:
    set opt_coordinates both
    optimize('wb97x-d/6-311G')
    break
  except OptimizationConvergenceError:
    break
  else:
    try:
      set opt_coordinates cartesian
      optimize('wb97x-d/6-311G')
      break
    except OptimizationConvergenceError:
      pass
clean()
--------------------------------------------------------------------------

    Molecular point group: c1
  Charge       = 0
  Multiplicity = 1
  Basis Set: 6-311G
    Blend: 6-311G
  Basis Set: (6-311G AUX)
    Blend: CC-PVTZ-JKFIT
  @DF-RKS Final Energy:  -895.93966204003834
    Total Energy =                       -895.9396620400383426
    Molecular point group: c1
  Basis Set: 6-311G
    Blend: 6-311G
  Basis Set: (6-311G AUX)
    Blend: CC-PVTZ-JKFIT
  Basis Set: 6-311G
    Blend: 6-311G
  Basis Set: (6-311G AUX)
    Blend: CC-PVTZ-JKFIT
  @DF-RKS Final Energy:  -895.95657616860638
    Total Energy =                       -895.9565761686062615
  Basis Set: 6-311G
    Blend: 6-311G
  Basis Set: (6-311G AUX)
    Blend: CC-PVTZ-JKFIT
  Basis Set: 6-311G
    Blend: 6-311G
  @DF-RKS Final Energy:  -895.96083505925583
    Total Energy =                       -895.9608350592558281
  @DF-RKS Final Energy:  -895.97014270547538
    Total Energy =                       -895.9701427054752685
  @DF-RKS Final Energy:  -895.97229199295191
    Total Energy =                       -895.9722919929517957
  @DF-RKS Final Energy:  -895.97254137757454
    Total Energy =                       -895.9725413775746574
  @DF-RKS Final Energy:  -895.97280591173194
    Total Energy =                       -895.9728059117320527
  @DF-RKS Final Energy:  -895.97318349075283
    Total Energy =                       -895.9731834907527173
  @DF-RKS Final Energy:  -895.97326668252890
    Total Energy =                       -895.9732666825290153
  Basis Set: (6-311G AUX)
    Blend: CC-PVTZ-JKFIT
  Basis Set: 6-311G
    Blend: 6-311G
  Basis Set: (6-311G AUX)
    Blend: CC-PVTZ-JKFIT
  @DF-RKS Final Energy:  -895.97330126855672
    Total Energy =                       -895.9733012685567246
  Basis Set: 6-311G
    Blend: 6-311G
  Basis Set: (6-311G AUX)
    Blend: CC-PVTZ-JKFIT
  Charge       = 0
  Multiplicity = 1
  Basis Set: 6-311G
    Blend: 6-311G
  Basis Set: (6-311G AUX)
    Blend: CC-PVTZ-JKFIT

    Orbital Energies [Eh]
    ---------------------

    Doubly Occupied:

       1A    -19.215962     2A    -14.472643     3A    -14.445707
       4A    -14.425952     5A    -10.398686     6A    -10.358979
       7A    -10.329797     8A    -10.326479     9A    -10.320508
      10A    -10.313942    11A    -10.302915    12A    -10.301919
      13A    -10.300930    14A    -10.300303    15A    -10.299597
      16A    -10.298761    17A    -10.286601    18A    -10.281397
      19A    -10.281258    20A    -10.278586    21A    -10.278393
      22A     -1.148185    23A     -1.064854    24A     -1.054247
      25A     -1.016671    26A     -0.977171    27A     -0.941047
      28A     -0.905613    29A     -0.874999    30A     -0.861769
      31A     -0.845962    32A     -0.838855    33A     -0.811075
      34A     -0.769000    35A     -0.720431    36A     -0.715516
      37A     -0.713430    38A     -0.695186    39A     -0.683411
      40A     -0.659236    41A     -0.628406    42A     -0.617774
      43A     -0.606620    44A     -0.600199    45A     -0.589031
      46A     -0.576311    47A     -0.557764    48A     -0.550934
      49A     -0.531014    50A     -0.530306    51A     -0.524763
      52A     -0.520892    53A     -0.519859    54A     -0.510420
      55A     -0.504441    56A     -0.502882    57A     -0.489758
      58A     -0.475001    59A     -0.469888    60A     -0.462253
      61A     -0.443746    62A     -0.438240    63A     -0.425510
      64A     -0.421791    65A     -0.413081    66A     -0.384027
      67A     -0.345992    68A     -0.340885    69A     -0.337954
      70A     -0.331245    71A     -0.323475    72A     -0.279306
      73A     -0.246995

  @DF-RKS Final Energy:  -895.97332678975351

   => Energetics <=

    Nuclear Repulsion Energy =           1547.2505256467788968
    One-Electron Energy =               -4287.5838779796795279
    Two-Electron Energy =                1932.1281698360044174
    DFT Exchange-Correlation Energy =     -87.7424246389298048
    Empirical Dispersion Energy =          -0.0257196539274609
    VV10 Nonlocal Energy =                  0.0000000000000000
    Total Energy =                       -895.9733267897535143

  Dipole Moment: [D]
     X:    -1.9087      Y:     0.2366      Z:     2.5746     Total:     3.2137

    Molecular point group: c1
  Basis Set: 6-311G
    Blend: 6-311G
  Basis Set: (6-311G AUX)
    Blend: CC-PVTZ-JKFIT

  -Total Gradient:
     Atom            X                  Y                   Z
    ------   -----------------  -----------------  -----------------
       1        0.016327954854     0.001387257513     0.001144697671
       2       -0.022676220591     0.003179465276    -0.006540164425
       3       -0.003346556912    -0.007438685002     0.007870997710
       4        0.004709571127     0.007967645861    -0.002049414890
       5        0.000063730244    -0.000143268939    -0.000065387218
       6       -0.000112001567     0.000031870166    -0.000276993131
       7       -0.000288938684     0.000259197426    -0.000165278969
       8        0.000673320049    -0.000043817441     0.000410085347
       9        0.000139394994    -0.000154700786     0.000004438741
      10        0.002434274160    -0.005101878419    -0.001127369314
      11        0.002813265138    -0.001641517777     0.002273458353
      12       -0.001330697407     0.000655734178    -0.001060923289
      13        0.000018569494     0.000090862397    -0.000012908281
      14       -0.000087987625    -0.000090422276     0.000078780517
      15       -0.000024709855    -0.000106643425    -0.000004884711
      16        0.000726114193     0.001054796930    -0.000322978092
      17       -0.000003559101    -0.000003252369     0.000072136685
      18        0.000868260981     0.001427989407    -0.000321028883
      19       -0.000007171206     0.000033822202     0.000058488641
      20       -0.001517233953    -0.002686795855     0.001009145753
      21        0.000141402045     0.000128672454    -0.000040257070
      22       -0.000192014218    -0.000072215155    -0.000314526791
      23        0.000046927228     0.000031320131    -0.000003290825
      24        0.000007082970    -0.000029425411     0.000000851381
      25        0.000017608806     0.000020030413     0.000026216517
      26       -0.000018915024    -0.000027248635     0.000002920993
      27        0.000005012084    -0.000001738361     0.000006997592
      28        0.000021806118    -0.000025386912     0.000038620581
      29       -0.000047221751     0.000014350021    -0.000014567475
      30        0.000035323385    -0.000015752394     0.000008578075
      31        0.000020320992     0.000010114899    -0.000000541800
      32        0.002329112317     0.002371682657    -0.002036148620
      33        0.000072970665     0.000020746215     0.000025210950
      34       -0.000005435534    -0.000010729058     0.000033835093
      35       -0.001441128311    -0.001296940502     0.001210688359
      36       -0.000001227047     0.000120424028     0.000160684799

  **** Optimization is complete! (in 11 steps) ****
    Final optimized geometry and variables:
    Molecular point group: c1

    Geometry (in Angstrom), charge = 0, multiplicity = 1:

    C           -0.818553650994     1.474272755584    -1.344555575375
    C           -0.762870404578     0.217029205840    -0.820358076650
    N            0.409714558360    -0.522176177387    -1.035213137785
    C            1.352427176350    -0.799391139415     0.004389009219
    H            0.908464170166    -0.183821529059    -1.855063383233
    C           -1.918682425761     2.436937105636    -1.306742305741
    N           -0.191343451666     3.385363903752    -2.399351648230
    C            0.271157587680     2.117174181471    -2.110691650871
    C           -1.502617123425     3.562322361033    -1.921645782297
    C           -1.782543050526    -0.445780032735     0.024101596652
    C           -2.297473343095     0.171067258418     1.170164686467
    C           -2.215117914419    -1.731313695136    -0.316306522949
    C           -3.236575562530    -0.485567259866     1.959733462899
    C           -3.162700270826    -2.381479610939     0.468452792498
    C           -3.673768371952    -1.761600337835     1.607596944371
    C            2.508966804205    -1.510597555107    -0.332558703747
    C            1.198549128156    -0.363776775481     1.319230162532
    C            3.485855502487    -1.773610365500     0.614941171206
    C            2.160675701070    -0.659904015109     2.281231163199
    C            3.319256318619    -1.370456182728     1.949414276250
    H            0.343381289451     4.048737911786    -2.925825818285
    O            1.370247496272     1.647212655725    -2.486892657810
    H           -1.951565084118     1.160386362075     1.441037547953
    H           -1.794262113778    -2.211944045577    -1.187987544640
    H           -3.620964198085    -0.006655152934     2.849951140904
    H           -3.497796052419    -3.372548901231     0.194770254115
    H           -4.404062784217    -2.272000822260     2.220627575381
    H            2.645473418841    -1.845107647653    -1.352540607060
    H            0.333568280614     0.213769248412     1.606605741344
    H            4.389732670974    -2.293622605741     0.323796782002
    H            2.012640292466    -0.321880792444     3.299532004606
    N            4.310234936239    -1.622718274860     2.895102069265
    H           -2.878005331375     2.275914192258    -0.848476044522
    H           -2.015772344462     4.495142180147    -2.072532593939
    H            4.909951851546    -2.417257796674     2.781581058226
    H            4.179426826178    -1.298899469150     3.834510278834

*** Psi4 exiting successfully. Buy a developer a beer!
