                               Psi4 1.3.2 release

  ==> Input File <==

--------------------------------------------------------------------------
molecule {
0 1
 C   -0.743237    1.625851    0.060544
 C   -0.766715    0.277654    0.354362
 N    0.281680   -0.317027    1.100442
 C    1.634899   -0.627125    0.730102
 H    0.195746   -0.102408    2.094278
 C   -1.027747    2.717006    0.975880
 N   -0.584946    3.610257   -1.051205
 C   -0.452808    2.248240   -1.278742
 C   -0.917961    3.874230    0.269986
 C   -1.887437   -0.637026    0.028215
 C   -3.219306   -0.319634    0.394367
 C   -1.626085   -1.884108   -0.592308
 C   -4.261899   -1.214589    0.121756
 C   -2.670639   -2.776323   -0.863004
 C   -3.995329   -2.446473   -0.510307
 C    2.249055   -1.759322    1.319515
 C    2.389494    0.131132   -0.197818
 C    3.571000   -2.105557    1.008230
 C    3.711315   -0.219805   -0.506030
 C    4.336418   -1.338238    0.097059
 H   -0.446191    4.285550   -1.789219
 O   -0.141809    1.769673   -2.368853
 H   -3.432596    0.627242    0.892907
 H   -0.601357   -2.146893   -0.859713
 H   -5.282572   -0.952460    0.404485
 H   -2.452275   -3.729189   -1.347481
 H   -4.809135   -3.141867   -0.722999
 H    1.691602   -2.379969    2.024993
 H    1.959068    0.997322   -0.698386
 H    4.005950   -2.987930    1.483061
 H    4.256632    0.389517   -1.230285
 N    5.681293   -1.693921   -0.219921
 H   -1.281017    2.623358    2.022241
 H   -1.052468    4.897970    0.591777
 H    6.163119   -2.183575    0.534608
 H    6.252022   -0.902922   -0.519899
}
set optking {
  frozen_dihedral = ("
    16 4 3 2
    1 2 10 11
    1 2 10 12
    3 2 10 11
    1 2 3 4
    10 2 3 4
    18 20 32 35
  ")
}
set {
  geom_maxiter 400
  g_convergence GAU_LOOSE
  dynamic_level 1
}
memory 8.333333333333334GB
set_num_threads(1)
psi4_io.set_default_path("/scratch/bdw2292/Psi4-7_1_Index_0_GrowFragment_0-farH_in17")
for _ in range(1):
  try:
    set opt_coordinates both
    optimize('wb97x-d/6-311G')
    break
  except OptimizationConvergenceError:
    break
  else:
    try:
      set opt_coordinates cartesian
      optimize('wb97x-d/6-311G')
      break
    except OptimizationConvergenceError:
      pass
clean()
--------------------------------------------------------------------------

    Molecular point group: c1
  Charge       = 0
  Multiplicity = 1
  Basis Set: 6-311G
    Blend: 6-311G
  Basis Set: (6-311G AUX)
    Blend: CC-PVTZ-JKFIT
  @DF-RKS Final Energy:  -895.86080004107021
    Total Energy =                       -895.8608000410702061
    Molecular point group: c1
  Basis Set: 6-311G
    Blend: 6-311G
  Basis Set: (6-311G AUX)
    Blend: CC-PVTZ-JKFIT
  Basis Set: 6-311G
    Blend: 6-311G
  Basis Set: (6-311G AUX)
    Blend: CC-PVTZ-JKFIT
  @DF-RKS Final Energy:  -895.88983866223612
    Total Energy =                       -895.8898386622360022
  Basis Set: 6-311G
    Blend: 6-311G
  Basis Set: (6-311G AUX)
    Blend: CC-PVTZ-JKFIT
  Basis Set: 6-311G
    Blend: 6-311G
  @DF-RKS Final Energy:  -895.92064188588381
    Total Energy =                       -895.9206418858836969
  @DF-RKS Final Energy:  -895.93481464374304
    Total Energy =                       -895.9348146437430387
  @DF-RKS Final Energy:  -895.94792027654069
    Total Energy =                       -895.9479202765407990
  @DF-RKS Final Energy:  -895.95439796801656
    Total Energy =                       -895.9543979680164512
  @DF-RKS Final Energy:  -895.95655971366523
    Total Energy =                       -895.9565597136652286
  @DF-RKS Final Energy:  -895.96313463554657
    Total Energy =                       -895.9631346355464530
  @DF-RKS Final Energy:  -895.96456749594381
    Total Energy =                       -895.9645674959438111
  @DF-RKS Final Energy:  -895.96519359818114
    Total Energy =                       -895.9651935981812585
  @DF-RKS Final Energy:  -895.96486310350565
    Total Energy =                       -895.9648631035057633
  @DF-RKS Final Energy:  -895.96519356711804
    Total Energy =                       -895.9651935671180354
  @DF-RKS Final Energy:  -895.96481563321970
    Total Energy =                       -895.9648156332195867
  @DF-RKS Final Energy:  -895.96523486840681
    Total Energy =                       -895.9652348684066965
  Basis Set: (6-311G AUX)
    Blend: CC-PVTZ-JKFIT
  Basis Set: 6-311G
    Blend: 6-311G
  Basis Set: (6-311G AUX)
    Blend: CC-PVTZ-JKFIT
  @DF-RKS Final Energy:  -895.96531047834833
    Total Energy =                       -895.9653104783483286
  Basis Set: 6-311G
    Blend: 6-311G
  Basis Set: (6-311G AUX)
    Blend: CC-PVTZ-JKFIT
  Charge       = 0
  Multiplicity = 1
  Basis Set: 6-311G
    Blend: 6-311G
  Basis Set: (6-311G AUX)
    Blend: CC-PVTZ-JKFIT

    Orbital Energies [Eh]
    ---------------------

    Doubly Occupied:

       1A    -19.207177     2A    -14.465761     3A    -14.459816
       4A    -14.431324     5A    -10.394348     6A    -10.355333
       7A    -10.332735     8A    -10.332628     9A    -10.329623
      10A    -10.305409    11A    -10.299751    12A    -10.294763
      13A    -10.293255    14A    -10.292630    15A    -10.292473
      16A    -10.291708    17A    -10.289990    18A    -10.287592
      19A    -10.286421    20A    -10.285846    21A    -10.281523
      22A     -1.142448    23A     -1.063671    24A     -1.057263
      25A     -1.022443    26A     -0.970880    27A     -0.945414
      28A     -0.906732    29A     -0.871273    30A     -0.854214
      31A     -0.853555    32A     -0.832879    33A     -0.819391
      34A     -0.766838    35A     -0.726545    36A     -0.713133
      37A     -0.704859    38A     -0.700519    39A     -0.683064
      40A     -0.649219    41A     -0.633253    42A     -0.625785
      43A     -0.606554    44A     -0.602551    45A     -0.596597
      46A     -0.563937    47A     -0.559284    48A     -0.542644
      49A     -0.536768    50A     -0.530078    51A     -0.524408
      52A     -0.517503    53A     -0.516205    54A     -0.513935
      55A     -0.507338    56A     -0.496968    57A     -0.485019
      58A     -0.482489    59A     -0.471139    60A     -0.458892
      61A     -0.444858    62A     -0.432170    63A     -0.430380
      64A     -0.425610    65A     -0.407479    66A     -0.383077
      67A     -0.348528    68A     -0.338508    69A     -0.333559
      70A     -0.328995    71A     -0.320600    72A     -0.276430
      73A     -0.250054

  @DF-RKS Final Energy:  -895.96531931339496

   => Energetics <=

    Nuclear Repulsion Energy =           1539.4192870905067139
    One-Electron Energy =               -4271.9668396442048106
    Two-Electron Energy =                1924.3491719007711254
    DFT Exchange-Correlation Energy =     -87.7408472847997132
    Empirical Dispersion Energy =          -0.0260913756684346
    VV10 Nonlocal Energy =                  0.0000000000000000
    Total Energy =                       -895.9653193133950708

  Dipole Moment: [D]
     X:     2.7089      Y:    -1.2033      Z:     2.6237     Total:     3.9585

    Molecular point group: c1
  Basis Set: 6-311G
    Blend: 6-311G
  Basis Set: (6-311G AUX)
    Blend: CC-PVTZ-JKFIT

  -Total Gradient:
     Atom            X                  Y                   Z
    ------   -----------------  -----------------  -----------------
       1       -0.002975818486     0.000715144886     0.001083904072
       2        0.004311881717    -0.004729932986    -0.005329522792
       3       -0.000329029473     0.006612531207     0.007168258474
       4       -0.000917001512    -0.002703861508    -0.000112374213
       5       -0.000013719301     0.000025393567    -0.000004724399
       6        0.000162987551    -0.000120539067    -0.000144303447
       7        0.000098093076     0.000080321671    -0.000002206786
       8        0.000082580814    -0.000149221382     0.000052534371
       9       -0.000112417622     0.000063363436     0.000094641877
      10        0.000113616731     0.001737788097    -0.001238656818
      11       -0.000316025254    -0.001127514221     0.001214109997
      12        0.000293565419     0.000345203766    -0.000421572425
      13       -0.000016824979    -0.000042275545    -0.000004514182
      14       -0.000019406669    -0.000012912666     0.000005064989
      15        0.000039674835     0.000019562317     0.000031194527
      16       -0.000261719741    -0.000611481727    -0.002194854450
      17        0.000045778336    -0.000065186381    -0.000013683724
      18       -0.000213221944    -0.000418656781    -0.001434597999
      19        0.000054272065    -0.000093567004     0.000012090163
      20        0.000489538245     0.001215471531     0.002695962366
      21       -0.000016412428    -0.000018483847     0.000029192767
      22       -0.000065457081    -0.000084494277    -0.000116968633
      23        0.000005759423     0.000017335501     0.000003139787
      24        0.000009594540    -0.000006878246     0.000002855013
      25       -0.000012820418    -0.000003831024     0.000008687706
      26        0.000010506566    -0.000021741984    -0.000005780485
      27       -0.000036882331    -0.000017827655    -0.000011640202
      28       -0.000019373429    -0.000041333110     0.000019647824
      29       -0.000069266532     0.000057262017     0.000022999552
      30        0.000010248931    -0.000018921027     0.000005458845
      31        0.000037053354     0.000031136137    -0.000020135770
      32       -0.000947175543    -0.002183870324    -0.002832139967
      33        0.000054659815    -0.000018350760     0.000025569845
      34        0.000011120311     0.000019748308     0.000022954859
      35        0.000633225030     0.001366598765     0.001499644626
      36        0.000070463488     0.000061165423     0.000042733398

  **** Optimization is complete! (in 4 steps) ****
    Final optimized geometry and variables:
    Molecular point group: c1

    Geometry (in Angstrom), charge = 0, multiplicity = 1:

    C           -0.586801421941     1.603114700102     0.428241804882
    C           -0.835285692217     0.277484702897     0.277120717492
    N           -0.216447873786    -0.667251547520     1.116581112560
    C            1.157811456395    -1.041330263366     1.053522204580
    H           -0.810422860630    -1.464655563925     1.289071832905
    C            0.174583157024     2.235357318500     1.506037362924
    N           -0.478300877924     3.852412426282     0.080207945395
    C           -1.003405953788     2.699857177291    -0.493478470961
    C            0.204846838477     3.561423779652     1.271123597495
    C           -1.818702180857    -0.293348638555    -0.675293768475
    C           -3.139568469799     0.159442274275    -0.723778621981
    C           -1.427739986383    -1.362375721716    -1.492518755887
    C           -4.052840748650    -0.438337460675    -1.585234794969
    C           -2.339565981085    -1.950587522534    -2.363229031481
    C           -3.654512688309    -1.490494556376    -2.408430086479
    C            1.502510877164    -2.354439006540     1.393337480125
    C            2.169381815845    -0.182698007172     0.618475687491
    C            2.817286512625    -2.793473094303     1.322172931587
    C            3.488517769390    -0.621456834581     0.554541875718
    C            3.841310943988    -1.928236144176     0.912171274961
    H           -0.597567572065     4.757649967194    -0.330678525291
    O           -1.644888817923     2.676231715809    -1.556625980691
    H           -3.440283363448     0.984349294514    -0.094001837121
    H           -0.405694203612    -1.717334882044    -1.451925481457
    H           -5.072761389234    -0.080997372128    -1.618450888391
    H           -2.025830686088    -2.763183822351    -3.004243193714
    H           -4.365622880424    -1.949820500611    -3.081789482105
    H            0.730422216307    -3.047276913666     1.707392580914
    H            1.936862024171     0.830428123449     0.328558796614
    H            3.051397377808    -3.821314075265     1.568702141279
    H            4.255491608548     0.066678672023     0.220896453016
    N            5.156072307658    -2.378435103272     0.810901949076
    H            0.590431622164     1.717993122569     2.351689260518
    H            0.639731423303     4.351524948324     1.857680634638
    H            5.468449567389    -3.125527042364     1.401038914931
    H            5.863567063646    -1.745256930816     0.490149006657

*** Psi4 exiting successfully. Buy a developer a beer!
