                               Psi4 1.5 release

  ==> Input File <==

--------------------------------------------------------------------------
molecule {
0 1
 C    1.617099   -0.312054   -0.035278
 N    0.440874   -0.843342    0.557129
 C   -0.833413   -0.376996    0.473896
 C   -1.785632   -0.862691    1.348007
 H    0.568599   -1.560745    1.275657
 C   -1.195109    0.579840   -0.603322
 C   -3.221307   -0.629078    1.419609
 N   -2.650105   -2.071475    3.051255
 C   -1.461465   -1.817072    2.400718
 C   -3.704754   -1.362078    2.448532
 C   -1.894654    1.753837   -0.307960
 C   -0.852363    0.300501   -1.930847
 C   -2.244143    2.637528   -1.326237
 C   -1.206829    1.181790   -2.946045
 C   -1.901343    2.353301   -2.646307
 C    2.643197   -1.199116   -0.370867
 C    1.821695    1.054823   -0.233188
 C    3.830094   -0.740016   -0.923975
 C    3.008036    1.517527   -0.787304
 C    4.034825    0.630580   -1.140820
 H   -2.724393   -2.706047    3.822311
 O   -0.342975   -2.340699    2.680515
 H   -2.150366    1.974887    0.719460
 H   -0.304922   -0.603059   -2.160711
 H   -2.781353    3.545535   -1.088477
 H   -0.939884    0.955617   -3.969239
 H   -2.173080    3.039798   -3.436605
 H    2.495767   -2.260051   -0.216809
 H    1.060458    1.764697    0.053736
 H    4.600972   -1.446366   -1.203673
 H    3.146248    2.581708   -0.931433
 N    5.205157    1.086193   -1.738448
 H   -3.797801   -0.000651    0.764055
 H   -4.710110   -1.455997    2.817300
 H    6.054124    0.568248   -1.613335
 H    5.313599    2.069922   -1.899727
}
memory 8.166666666666666GB
set_num_threads(2)
psi4_io.set_default_path("/scratch/bdw2292/Psi4-1_7_Index_0_GrowFragment_0-farH_in17")
set freeze_core True
E, wfn = energy('wb97x-d/6-311+G*',return_wfn=True)
oeprop(wfn,"WIBERG_LOWDIN_INDICES")
clean()
--------------------------------------------------------------------------

    Molecular point group: c1

    Geometry (in Angstrom), charge = 0, multiplicity = 1:

       Center              X                  Y                   Z               Mass
    ------------   -----------------  -----------------  -----------------  -----------------
         C            1.617098976527    -0.312053922457    -0.035278041195    12.000000000000
         N            0.440873976527    -0.843341922457     0.557128958805    14.003074004430
         C           -0.833413023473    -0.376995922457     0.473895958805    12.000000000000
         C           -1.785632023473    -0.862690922457     1.348006958805    12.000000000000
         H            0.568598976527    -1.560744922457     1.275656958805     1.007825032230
         C           -1.195109023473     0.579840077543    -0.603322041195    12.000000000000
         C           -3.221307023473    -0.629077922457     1.419608958805    12.000000000000
         N           -2.650105023473    -2.071474922457     3.051254958805    14.003074004430
         C           -1.461465023473    -1.817071922457     2.400717958805    12.000000000000
         C           -3.704754023473    -1.362077922457     2.448531958805    12.000000000000
         C           -1.894654023473     1.753837077543    -0.307960041195    12.000000000000
         C           -0.852363023473     0.300501077543    -1.930847041195    12.000000000000
         C           -2.244143023473     2.637528077543    -1.326237041195    12.000000000000
         C           -1.206829023473     1.181790077543    -2.946045041195    12.000000000000
         C           -1.901343023473     2.353301077543    -2.646307041195    12.000000000000
         C            2.643196976527    -1.199115922457    -0.370867041195    12.000000000000
         C            1.821694976527     1.054823077543    -0.233188041195    12.000000000000
         C            3.830093976527    -0.740015922457    -0.923975041195    12.000000000000
         C            3.008035976527     1.517527077543    -0.787304041195    12.000000000000
         C            4.034824976527     0.630580077543    -1.140820041195    12.000000000000
         H           -2.724393023473    -2.706046922457     3.822310958805     1.007825032230
         O           -0.342975023473    -2.340698922457     2.680514958805    15.994914619570
         H           -2.150366023473     1.974887077543     0.719459958805     1.007825032230
         H           -0.304922023473    -0.603058922457    -2.160711041195     1.007825032230
         H           -2.781353023473     3.545535077543    -1.088477041195     1.007825032230
         H           -0.939884023473     0.955617077543    -3.969239041195     1.007825032230
         H           -2.173080023473     3.039798077543    -3.436605041195     1.007825032230
         H            2.495766976527    -2.260050922457    -0.216809041195     1.007825032230
         H            1.060457976527     1.764697077543     0.053735958805     1.007825032230
         H            4.600971976527    -1.446365922457    -1.203673041195     1.007825032230
         H            3.146247976527     2.581708077543    -0.931433041195     1.007825032230
         N            5.205156976527     1.086193077543    -1.738448041195    14.003074004430
         H           -3.797801023473    -0.000650922457     0.764054958805     1.007825032230
         H           -4.710110023473    -1.455996922457     2.817299958805     1.007825032230
         H            6.054123976527     0.568248077543    -1.613335041195     1.007825032230
         H            5.313598976527     2.069922077543    -1.899727041195     1.007825032230

  Charge       = 0
  Multiplicity = 1
  Basis Set: 6-311+G*
    Blend: 6-311+G*
  Basis Set: (6-311+G* AUX)
    Blend: HEAVY-AUG-CC-PVTZ-JKFIT

    Orbital Energies [Eh]
    ---------------------

    Doubly Occupied:

       1A    -19.199796     2A    -14.463694     3A    -14.460357
       4A    -14.441105     5A    -10.372421     6A    -10.359273
       7A    -10.334397     8A    -10.325485     9A    -10.312783
      10A    -10.311722    11A    -10.301337    12A    -10.300652
      13A    -10.300395    14A    -10.299855    15A    -10.298826
      16A    -10.291254    17A    -10.290937    18A    -10.286962
      19A    -10.286652    20A    -10.277515    21A    -10.274739
      22A     -1.117336    23A     -1.063246    24A     -1.042753
      25A     -1.027029    26A     -0.975018    27A     -0.946711
      28A     -0.900374    29A     -0.868301    30A     -0.859877
      31A     -0.853308    32A     -0.839544    33A     -0.804635
      34A     -0.762582    35A     -0.724876    36A     -0.717220
      37A     -0.715550    38A     -0.691508    39A     -0.675796
      40A     -0.663091    41A     -0.633254    42A     -0.621800
      43A     -0.610618    44A     -0.601294    45A     -0.591206
      46A     -0.575363    47A     -0.556302    48A     -0.548348
      49A     -0.533465    50A     -0.530806    51A     -0.521658
      52A     -0.516223    53A     -0.512463    54A     -0.509077
      55A     -0.506062    56A     -0.495216    57A     -0.486196
      58A     -0.479910    59A     -0.470202    60A     -0.464890
      61A     -0.453715    62A     -0.443558    63A     -0.438966
      64A     -0.427375    65A     -0.399782    66A     -0.397887
      67A     -0.345906    68A     -0.342344    69A     -0.334856
      70A     -0.331767    71A     -0.328221    72A     -0.280993
      73A     -0.248563

  @DF-RKS Final Energy:  -896.22546253687756

   => Energetics <=

    Nuclear Repulsion Energy =           1547.5426553987656462
    One-Electron Energy =               -4288.7351165136306008
    Two-Electron Energy =                1932.7575690744124586
    DFT Exchange-Correlation Energy =     -87.7645806730327820
    Empirical Dispersion Energy =          -0.0259898233920300
    VV10 Nonlocal Energy =                  0.0000000000000000
    Total Energy =                       -896.2254625368775578

  Dipole Moment: [D]
     X:     0.5875      Y:     2.8859      Z:    -2.3913     Total:     3.7937

*** Psi4 exiting successfully. Buy a developer a beer!
