                               Psi4 1.5 release

  ==> Input File <==

--------------------------------------------------------------------------
molecule {
0 1
 C    1.753591   -0.280689   -0.473333
 N    0.414578   -0.282508   -0.965921
 C   -0.703855    0.289065   -0.452807
 C   -0.997425    0.155707    0.896143
 H    0.305647   -0.397154   -1.983669
 C   -1.825708    0.617450   -1.388640
 C   -1.030705    1.118762    1.966952
 N   -1.635164   -0.902957    2.765570
 C   -1.411613   -1.143619    1.427538
 C   -1.411906    0.441826    3.083636
 C   -2.418794    1.903643   -1.355478
 C   -2.332773   -0.351054   -2.293209
 C   -3.469161    2.222318   -2.227106
 C   -3.380858   -0.025790   -3.164667
 C   -3.952996    1.262645   -3.140146
 C    2.803298   -0.350721   -1.427345
 C    2.092410   -0.058802    0.887533
 C    4.143251   -0.267125   -1.023249
 C    3.437336    0.023115    1.279669
 C    4.491065   -0.092873    0.339408
 H   -1.927247   -1.638873    3.392400
 O   -1.540731   -2.242745    0.848082
 H   -2.048811    2.649453   -0.649708
 H   -1.905937   -1.356311   -2.302168
 H   -3.910828    3.220003   -2.199983
 H   -3.751991   -0.776199   -3.864786
 H   -4.767072    1.514776   -3.822203
 H    2.548649   -0.469847   -2.483892
 H    1.315257    0.042755    1.637796
 H    4.922767   -0.334190   -1.785728
 H    3.660275    0.183951    2.336939
 N    5.850028   -0.016340    0.749917
 H   -0.785241    2.169305    1.908693
 H   -1.543598    0.792396    4.097921
 H    6.424969   -0.570311    0.110092
 H    5.953676   -0.520553    1.634625
}
set optking {
  frozen_dihedral = ("
    1 2 3 4
    16 1 2 3
    2 3 6 11
    18 20 32 35
  ")
}
set {
  geom_maxiter 400
  g_convergence GAU_LOOSE
  dynamic_level 1
}
memory 8.166666666666666GB
set_num_threads(2)
psi4_io.set_default_path("/scratch/bdw2292/Psi4-1_7_Index_0_GrowFragment_0-farH_in17")
for _ in range(1):
  try:
    set opt_coordinates both
    optimize('wb97x-d/6-311G')
    break
  except OptimizationConvergenceError:
    break
  else:
    try:
      set opt_coordinates cartesian
      optimize('wb97x-d/6-311G')
      break
    except OptimizationConvergenceError:
      pass
clean()
--------------------------------------------------------------------------

    Molecular point group: c1
  Charge       = 0
  Multiplicity = 1
  Basis Set: 6-311G
    Blend: 6-311G
  Basis Set: (6-311G AUX)
    Blend: CC-PVTZ-JKFIT
  @DF-RKS Final Energy:  -895.89409793718414
    Total Energy =                       -895.8940979371842559
    Molecular point group: c1
  Basis Set: 6-311G
    Blend: 6-311G
  Basis Set: (6-311G AUX)
    Blend: CC-PVTZ-JKFIT
  Basis Set: 6-311G
    Blend: 6-311G
  Basis Set: (6-311G AUX)
    Blend: CC-PVTZ-JKFIT
  @DF-RKS Final Energy:  -895.91417085280386
    Total Energy =                       -895.9141708528038635
  Basis Set: 6-311G
    Blend: 6-311G
  Basis Set: (6-311G AUX)
    Blend: CC-PVTZ-JKFIT
  Basis Set: 6-311G
    Blend: 6-311G
  @DF-RKS Final Energy:  -895.92605909973872
    Total Energy =                       -895.9260590997387226
  @DF-RKS Final Energy:  -895.93582459894094
    Total Energy =                       -895.9358245989409397
  @DF-RKS Final Energy:  -895.94753849908443
    Total Energy =                       -895.9475384990843168
  @DF-RKS Final Energy:  -895.95310555659364
    Total Energy =                       -895.9531055565937550
  @DF-RKS Final Energy:  -895.95779029486130
    Total Energy =                       -895.9577902948611836
  @DF-RKS Final Energy:  -895.95859192462103
    Total Energy =                       -895.9585919246209187
  @DF-RKS Final Energy:  -895.95870328002525
    Total Energy =                       -895.9587032800251336
  @DF-RKS Final Energy:  -895.95877533886073
    Total Energy =                       -895.9587753388607325
  @DF-RKS Final Energy:  -895.95884137389749
    Total Energy =                       -895.9588413738974850
  @DF-RKS Final Energy:  -895.95886901453116
    Total Energy =                       -895.9588690145310466
  Basis Set: (6-311G AUX)
    Blend: CC-PVTZ-JKFIT
  Basis Set: 6-311G
    Blend: 6-311G
  Basis Set: (6-311G AUX)
    Blend: CC-PVTZ-JKFIT
  @DF-RKS Final Energy:  -895.95887449502504
    Total Energy =                       -895.9588744950249293
  Basis Set: 6-311G
    Blend: 6-311G
  Basis Set: (6-311G AUX)
    Blend: CC-PVTZ-JKFIT
  Charge       = 0
  Multiplicity = 1
  Basis Set: 6-311G
    Blend: 6-311G
  Basis Set: (6-311G AUX)
    Blend: CC-PVTZ-JKFIT

    Orbital Energies [Eh]
    ---------------------

    Doubly Occupied:

       1A    -19.194180     2A    -14.477318     3A    -14.458020
       4A    -14.427433     5A    -10.380960     6A    -10.363967
       7A    -10.327861     8A    -10.327721     9A    -10.322466
      10A    -10.317493    11A    -10.308120    12A    -10.305825
      13A    -10.305587    14A    -10.304873    15A    -10.303458
      16A    -10.291746    17A    -10.289212    18A    -10.280768
      19A    -10.279260    20A    -10.276540    21A    -10.275778
      22A     -1.130316    23A     -1.072271    24A     -1.049529
      25A     -1.018500    26A     -0.983266    27A     -0.944133
      28A     -0.905757    29A     -0.873717    30A     -0.866655
      31A     -0.848424    32A     -0.836126    33A     -0.813710
      34A     -0.766230    35A     -0.727738    36A     -0.723710
      37A     -0.706592    38A     -0.701242    39A     -0.681050
      40A     -0.653840    41A     -0.639895    42A     -0.620990
      43A     -0.605400    44A     -0.597366    45A     -0.593995
      46A     -0.578908    47A     -0.561247    48A     -0.552565
      49A     -0.532431    50A     -0.528893    51A     -0.524640
      52A     -0.521014    53A     -0.511989    54A     -0.507483
      55A     -0.504012    56A     -0.495875    57A     -0.484507
      58A     -0.476786    59A     -0.470309    60A     -0.465570
      61A     -0.449114    62A     -0.446118    63A     -0.439105
      64A     -0.422943    65A     -0.395000    66A     -0.388362
      67A     -0.346473    68A     -0.341420    69A     -0.330954
      70A     -0.327418    71A     -0.316315    72A     -0.270416
      73A     -0.243032

  @DF-RKS Final Energy:  -895.95887824854799

   => Energetics <=

    Nuclear Repulsion Energy =           1535.7363281666796411
    One-Electron Energy =               -4264.5364594645998295
    Two-Electron Energy =                1920.6108924043219304
    DFT Exchange-Correlation Energy =     -87.7444963676743868
    Empirical Dispersion Energy =          -0.0251429872751588
    VV10 Nonlocal Energy =                  0.0000000000000000
    Total Energy =                       -895.9588782485479896

  Dipole Moment: [D]
     X:    -0.5018      Y:     2.1172      Z:    -1.1314     Total:     2.4524

    Molecular point group: c1
  Basis Set: 6-311G
    Blend: 6-311G
  Basis Set: (6-311G AUX)
    Blend: CC-PVTZ-JKFIT

  -Total Gradient:
     Atom            X                  Y                   Z
    ------   -----------------  -----------------  -----------------
       1        0.000300393962    -0.008626454027    -0.000367011786
       2       -0.001643096404    -0.004792800540     0.003384332966
       3       -0.001504361709     0.003654248592    -0.002158374159
       4        0.002094711355     0.003692479928     0.000889582419
       5       -0.000015491363     0.000021766884    -0.000023269045
       6        0.004776244277     0.001583046156    -0.004214662111
       7       -0.000018875786    -0.000151352978    -0.000098208499
       8        0.000037339558    -0.000146831870    -0.000056037145
       9       -0.000063562259     0.000034758796    -0.000051344915
      10        0.000112766594     0.000100386549     0.000091240257
      11       -0.003724046371    -0.002040334229     0.002811424047
      12        0.000055335075     0.000008491672     0.000012333744
      13       -0.000009578796     0.000042105449     0.000005151310
      14       -0.000020340119     0.000052193608    -0.000033813038
      15        0.000022426768     0.000006882587     0.000013220092
      16       -0.000189781056     0.006719110847    -0.000119798891
      17        0.000038921638    -0.000027215258     0.000043056608
      18       -0.000129109997     0.001583388798    -0.000170949758
      19       -0.000012158427     0.000048044300    -0.000026438828
      20        0.000350942174    -0.003074733389     0.000677390612
      21       -0.000006274061    -0.000058586692     0.000026271971
      22       -0.000019696113    -0.000003973768     0.000012018950
      23        0.000032471028     0.000032770980    -0.000008693785
      24       -0.000006919019    -0.000000919899    -0.000009805870
      25        0.000019884797     0.000035091806     0.000019780221
      26        0.000000751456     0.000004810923    -0.000005383034
      27        0.000000766829     0.000041586087     0.000004913785
      28        0.000007329688    -0.000003599889    -0.000012560467
      29       -0.000028215267    -0.000026395747     0.000049219742
      30        0.000031860805     0.000011720470     0.000013136651
      31        0.000030757167    -0.000023113311     0.000035667838
      32       -0.000167968339     0.003113152521    -0.001750147015
      33       -0.000026667780    -0.000004865581     0.000043182553
      34       -0.000024004844     0.000023896428     0.000042537969
      35        0.000093602014    -0.001772439870     0.001257549408
      36        0.000013506937     0.000043127400     0.000009594752

  **** Optimization is complete! (in 14 steps) ****
    Final optimized geometry and variables:
    Molecular point group: c1

    Geometry (in Angstrom), charge = 0, multiplicity = 1:

    C            1.607542166139    -0.470483832104    -0.480929387664
    N            0.216471009075    -0.507064797475    -0.778525751876
    C           -0.875322151117     0.006195726043    -0.120030602915
    C           -1.109711918435    -0.099357413020     1.230728477677
    H            0.073471010450    -0.548862685841    -1.775692374667
    C           -1.884948115148     0.604542637810    -1.046292946539
    C           -2.174103681269     0.530771791787     2.014626630991
    N           -1.231189656407    -1.052793505718     3.296665840431
    C           -0.546233174631    -1.162874065904     2.092600941017
    C           -2.197361076283    -0.044810244876     3.234957686949
    C           -2.421368046576     1.878489609916    -0.832041619437
    C           -2.356369112086    -0.151880861261    -2.128756876116
    C           -3.386190204049     2.393272714462    -1.694121111909
    C           -3.320266781654     0.365097023826    -2.989060748434
    C           -3.838699928365     1.639994169480    -2.774844572275
    C            2.468787570813    -0.486008832576    -1.588017102467
    C            2.162482530245    -0.223191629244     0.774537374574
    C            3.838855308971    -0.344979117039    -1.444970496001
    C            3.539061716946    -0.082344148167     0.919968619972
    C            4.405378506342    -0.161003755336    -0.175087105603
    H           -1.075619747183    -1.684734008090     4.057428575039
    O            0.280558858242    -2.063219698400     1.838175504732
    H           -2.052132384778     2.484311413863    -0.017121353175
    H           -1.998452144974    -1.163162081407    -2.278234803908
    H           -3.780213386054     3.385720210360    -1.522586728743
    H           -3.675685090078    -0.234610625540    -3.815800115897
    H           -4.589910096981     2.040626010874    -3.441324234622
    H            2.059038163034    -0.615594141445    -2.583832413375
    H            1.544755443106    -0.143234147448     1.647202435229
    H            4.473988743255    -0.352257063925    -2.321367490179
    H            3.944037371905     0.085197776183     1.910112427297
    N            5.780108523275     0.002664062359    -0.028057155134
    H           -2.822972349560     1.324292329336     1.696245293082
    H           -2.822299234652     0.173581661361     4.082634309795
    H            6.399038912097    -0.434070640701    -0.684186649148
    H            6.152612267435     0.157155808084     0.889569628644

*** Psi4 exiting successfully. Buy a developer a beer!
