                               Psi4 1.5 release

  ==> Input File <==

--------------------------------------------------------------------------
molecule {
0 1
 C    1.870116   -0.100052   -0.408219
 N    0.589671    0.277418   -0.892786
 C   -0.625928    0.339553   -0.252787
 C   -0.807018    0.290596    1.106236
 H    0.570017    0.558294   -1.859178
 C   -1.758925    0.431596   -1.214614
 C    0.160745    0.541323    2.176360
 N   -1.817366    0.070932    3.133373
 C   -2.096611   -0.012713    1.772504
 C   -0.478958    0.413863    3.357016
 C   -2.752481    1.401162   -1.054712
 C   -1.815889   -0.431854   -2.314192
 C   -3.781425    1.509089   -1.981395
 C   -2.852773   -0.328472   -3.238018
 C   -3.835093    0.644469   -3.074349
 C    3.002036    0.483821   -0.980313
 C    2.043960   -1.140200    0.509314
 C    4.278588    0.079963   -0.611578
 C    3.318077   -1.544862    0.880742
 C    4.459894   -0.945500    0.326913
 H   -2.513182   -0.109453    3.830099
 O   -3.212242   -0.331244    1.314718
 H   -2.714647    2.060839   -0.199989
 H   -1.064766   -1.203096   -2.426474
 H   -4.546885    2.260818   -1.848010
 H   -2.898143   -1.011743   -4.075082
 H   -4.642101    0.725897   -3.789901
 H    2.884152    1.283794   -1.700909
 H    1.182305   -1.631006    0.935830
 H    5.141768    0.570242   -1.042641
 H    3.430291   -2.348176    1.597972
 N    5.736027   -1.318085    0.733798
 H    1.185690    0.836165    2.051472
 H   -0.107076    0.562936    4.355336
 H    6.504270   -1.219260    0.097709
 H    5.833012   -2.034673    1.428259
}
memory 8.166666666666666GB
set_num_threads(2)
psi4_io.set_default_path("/scratch/bdw2292/Psi4-1_7_Index_0_GrowFragment_0-farH_in17")
set freeze_core True
E, wfn = energy('wb97x-d/6-311+G*',return_wfn=True)
oeprop(wfn,"WIBERG_LOWDIN_INDICES")
clean()
--------------------------------------------------------------------------

    Molecular point group: c1

    Geometry (in Angstrom), charge = 0, multiplicity = 1:

       Center              X                  Y                   Z               Mass
    ------------   -----------------  -----------------  -----------------  -----------------
         C            1.870116107579    -0.100052022941    -0.408219083912    12.000000000000
         N            0.589671107579     0.277417977059    -0.892786083912    14.003074004430
         C           -0.625927892421     0.339552977059    -0.252787083912    12.000000000000
         C           -0.807017892421     0.290595977059     1.106235916088    12.000000000000
         H            0.570017107579     0.558293977059    -1.859178083912     1.007825032230
         C           -1.758924892421     0.431595977059    -1.214614083912    12.000000000000
         C            0.160745107579     0.541322977059     2.176359916088    12.000000000000
         N           -1.817365892421     0.070931977059     3.133372916088    14.003074004430
         C           -2.096610892421    -0.012713022941     1.772503916088    12.000000000000
         C           -0.478957892421     0.413862977059     3.357015916088    12.000000000000
         C           -2.752480892421     1.401161977059    -1.054712083912    12.000000000000
         C           -1.815888892421    -0.431854022941    -2.314192083912    12.000000000000
         C           -3.781424892421     1.509088977059    -1.981395083912    12.000000000000
         C           -2.852772892421    -0.328472022941    -3.238018083912    12.000000000000
         C           -3.835092892421     0.644468977059    -3.074349083912    12.000000000000
         C            3.002036107579     0.483820977059    -0.980313083912    12.000000000000
         C            2.043960107579    -1.140200022941     0.509313916088    12.000000000000
         C            4.278588107579     0.079962977059    -0.611578083912    12.000000000000
         C            3.318077107579    -1.544862022941     0.880741916088    12.000000000000
         C            4.459894107579    -0.945500022941     0.326912916088    12.000000000000
         H           -2.513181892421    -0.109453022941     3.830098916088     1.007825032230
         O           -3.212241892421    -0.331244022941     1.314717916088    15.994914619570
         H           -2.714646892421     2.060838977059    -0.199989083912     1.007825032230
         H           -1.064765892421    -1.203096022941    -2.426474083912     1.007825032230
         H           -4.546884892421     2.260817977059    -1.848010083912     1.007825032230
         H           -2.898142892421    -1.011743022941    -4.075082083912     1.007825032230
         H           -4.642100892421     0.725896977059    -3.789901083912     1.007825032230
         H            2.884152107579     1.283793977059    -1.700909083912     1.007825032230
         H            1.182305107579    -1.631006022941     0.935829916088     1.007825032230
         H            5.141768107579     0.570241977059    -1.042641083912     1.007825032230
         H            3.430291107579    -2.348176022941     1.597971916088     1.007825032230
         N            5.736027107579    -1.318085022941     0.733797916088    14.003074004430
         H            1.185690107579     0.836164977059     2.051471916088     1.007825032230
         H           -0.107075892421     0.562935977059     4.355335916088     1.007825032230
         H            6.504270107579    -1.219260022941     0.097708916088     1.007825032230
         H            5.833012107579    -2.034673022941     1.428258916088     1.007825032230

  Charge       = 0
  Multiplicity = 1
  Basis Set: 6-311+G*
    Blend: 6-311+G*
  Basis Set: (6-311+G* AUX)
    Blend: HEAVY-AUG-CC-PVTZ-JKFIT

    Orbital Energies [Eh]
    ---------------------

    Doubly Occupied:

       1A    -19.187922     2A    -14.477162     3A    -14.452681
       4A    -14.445200     5A    -10.370850     6A    -10.357494
       7A    -10.339267     8A    -10.332053     9A    -10.313304
      10A    -10.302502    11A    -10.298950    12A    -10.294586
      13A    -10.293317    14A    -10.292287    15A    -10.291793
      16A    -10.290553    17A    -10.289448    18A    -10.289065
      19A    -10.286719    20A    -10.279894    21A    -10.269928
      22A     -1.110542    23A     -1.070890    24A     -1.036461
      25A     -1.031458    26A     -0.967777    27A     -0.947890
      28A     -0.898092    29A     -0.865783    30A     -0.858843
      31A     -0.849745    32A     -0.832660    33A     -0.810336
      34A     -0.759912    35A     -0.730110    36A     -0.716740
      37A     -0.700195    38A     -0.699070    39A     -0.673099
      40A     -0.652266    41A     -0.639386    42A     -0.624301
      43A     -0.614171    44A     -0.603713    45A     -0.591245
      46A     -0.562159    47A     -0.551121    48A     -0.539286
      49A     -0.537291    50A     -0.529022    51A     -0.520142
      52A     -0.517862    53A     -0.513011    54A     -0.508491
      55A     -0.504522    56A     -0.491674    57A     -0.484122
      58A     -0.479549    59A     -0.470016    60A     -0.458680
      61A     -0.453712    62A     -0.436072    63A     -0.429868
      64A     -0.427202    65A     -0.398912    66A     -0.393142
      67A     -0.344394    68A     -0.340342    69A     -0.333827
      70A     -0.327750    71A     -0.313262    72A     -0.280318
      73A     -0.248849

  @DF-RKS Final Energy:  -896.20940615721941

   => Energetics <=

    Nuclear Repulsion Energy =           1536.5245253533985306
    One-Electron Energy =               -4266.9589739699658821
    Two-Electron Energy =                1922.0061879560116722
    DFT Exchange-Correlation Energy =     -87.7553145557101573
    Empirical Dispersion Energy =          -0.0258309409537063
    VV10 Nonlocal Energy =                  0.0000000000000000
    Total Energy =                       -896.2094061572195187

  Dipole Moment: [D]
     X:     5.2927      Y:    -0.1348      Z:    -0.6615     Total:     5.3355

*** Psi4 exiting successfully. Buy a developer a beer!
