                               Psi4 1.5 release

  ==> Input File <==

--------------------------------------------------------------------------
molecule {
0 1
 C    1.782387    0.037182   -0.598381
 N    0.524594    0.433743   -1.136052
 C   -0.689227    0.563240   -0.558211
 C   -0.833145    0.572772    0.822077
 H    0.485532    0.780931   -2.104685
 C   -1.901869    0.567759   -1.436430
 C   -0.491589    1.569737    1.803367
 N   -1.438246   -0.197473    2.837360
 C   -1.447382   -0.562767    1.509531
 C   -0.871926    1.071231    3.010348
 C   -2.884368    1.577944   -1.285751
 C   -2.092426   -0.436550   -2.419655
 C   -4.018108    1.591793   -2.109474
 C   -3.226953   -0.416090   -3.242441
 C   -4.195452    0.597889   -3.093920
 C    2.952848    0.579806   -1.185362
 C    1.909367   -0.763774    0.565032
 C    4.214735    0.298920   -0.642203
 C    3.176696   -1.034946    1.101776
 C    4.356165   -0.520696    0.506531
 H   -1.807462   -0.803911    3.555570
 O   -1.855810   -1.649682    1.051479
 H   -2.750895    2.348974   -0.524551
 H   -1.352235   -1.231232   -2.530210
 H   -4.763426    2.379787   -1.988697
 H   -3.357710   -1.188305   -4.002647
 H   -5.077931    0.612770   -3.736158
 H    2.850820    1.225565   -2.061399
 H    1.023851   -1.189292    1.030440
 H    5.096270    0.732795   -1.119759
 H    3.238929   -1.657984    1.996904
 N    5.636500   -0.806872    1.053916
 H   -0.021334    2.526103    1.626108
 H   -0.789542    1.502315    3.998346
 H    6.331589   -0.800652    0.303274
 H    5.651137   -1.782521    1.362803
}
set optking {
  frozen_dihedral = ("
    1 2 3 4
    16 1 2 3
    2 3 6 11
    18 20 32 35
  ")
}
set {
  geom_maxiter 400
  g_convergence GAU_LOOSE
  dynamic_level 1
}
memory 8.166666666666666GB
set_num_threads(2)
psi4_io.set_default_path("/scratch/bdw2292/Psi4-1_7_Index_0_GrowFragment_0-farH_in17")
for _ in range(1):
  try:
    set opt_coordinates both
    optimize('wb97x-d/6-311G')
    break
  except OptimizationConvergenceError:
    break
  else:
    try:
      set opt_coordinates cartesian
      optimize('wb97x-d/6-311G')
      break
    except OptimizationConvergenceError:
      pass
clean()
--------------------------------------------------------------------------

    Molecular point group: c1
  Charge       = 0
  Multiplicity = 1
  Basis Set: 6-311G
    Blend: 6-311G
  Basis Set: (6-311G AUX)
    Blend: CC-PVTZ-JKFIT
  @DF-RKS Final Energy:  -895.91478933551582
    Total Energy =                       -895.9147893355159340
    Molecular point group: c1
  Basis Set: 6-311G
    Blend: 6-311G
  Basis Set: (6-311G AUX)
    Blend: CC-PVTZ-JKFIT
  Basis Set: 6-311G
    Blend: 6-311G
  Basis Set: (6-311G AUX)
    Blend: CC-PVTZ-JKFIT
  @DF-RKS Final Energy:  -895.93590517531891
    Total Energy =                       -895.9359051753189078
  Basis Set: 6-311G
    Blend: 6-311G
  Basis Set: (6-311G AUX)
    Blend: CC-PVTZ-JKFIT
  Basis Set: 6-311G
    Blend: 6-311G
  @DF-RKS Final Energy:  -895.94915726751196
    Total Energy =                       -895.9491572675119642
  @DF-RKS Final Energy:  -895.95906942928514
    Total Energy =                       -895.9590694292852504
  @DF-RKS Final Energy:  -895.96551902578176
    Total Energy =                       -895.9655190257818731
  @DF-RKS Final Energy:  -895.97158202779895
    Total Energy =                       -895.9715820277989451
  @DF-RKS Final Energy:  -895.97288218576386
    Total Energy =                       -895.9728821857638650
  @DF-RKS Final Energy:  -895.97314470586298
    Total Energy =                       -895.9731447058630920
  @DF-RKS Final Energy:  -895.97332465285933
    Total Energy =                       -895.9733246528593327
  @DF-RKS Final Energy:  -895.97340323828382
    Total Energy =                       -895.9734032382837086
  Basis Set: (6-311G AUX)
    Blend: CC-PVTZ-JKFIT
  Basis Set: 6-311G
    Blend: 6-311G
  Basis Set: (6-311G AUX)
    Blend: CC-PVTZ-JKFIT
  @DF-RKS Final Energy:  -895.97342409047110
    Total Energy =                       -895.9734240904710987
  Basis Set: 6-311G
    Blend: 6-311G
  Basis Set: (6-311G AUX)
    Blend: CC-PVTZ-JKFIT
  Charge       = 0
  Multiplicity = 1
  Basis Set: 6-311G
    Blend: 6-311G
  Basis Set: (6-311G AUX)
    Blend: CC-PVTZ-JKFIT

    Orbital Energies [Eh]
    ---------------------

    Doubly Occupied:

       1A    -19.186510     2A    -14.477245     3A    -14.452540
       4A    -14.440153     5A    -10.377378     6A    -10.360619
       7A    -10.342924     8A    -10.335834     9A    -10.314325
      10A    -10.305736    11A    -10.300238    12A    -10.295700
      13A    -10.294763    14A    -10.293363    15A    -10.292945
      16A    -10.291876    17A    -10.290991    18A    -10.290391
      19A    -10.288203    20A    -10.283609    21A    -10.271086
      22A     -1.123736    23A     -1.073352    24A     -1.043350
      25A     -1.031911    26A     -0.971896    27A     -0.951807
      28A     -0.900904    29A     -0.868717    30A     -0.861387
      31A     -0.852630    32A     -0.835993    33A     -0.813973
      34A     -0.763025    35A     -0.732495    36A     -0.719503
      37A     -0.702635    38A     -0.701128    39A     -0.674449
      40A     -0.655627    41A     -0.641299    42A     -0.626491
      43A     -0.614324    44A     -0.604518    45A     -0.591604
      46A     -0.562245    47A     -0.553889    48A     -0.541332
      49A     -0.539732    50A     -0.531306    51A     -0.522546
      52A     -0.520461    53A     -0.515494    54A     -0.509568
      55A     -0.506184    56A     -0.492340    57A     -0.483348
      58A     -0.477470    59A     -0.469408    60A     -0.457037
      61A     -0.453444    62A     -0.435738    63A     -0.430194
      64A     -0.426649    65A     -0.396699    66A     -0.390659
      67A     -0.342745    68A     -0.338951    69A     -0.332594
      70A     -0.326015    71A     -0.308235    72A     -0.276632
      73A     -0.244263

  @DF-RKS Final Energy:  -895.97343120479252

   => Energetics <=

    Nuclear Repulsion Energy =           1536.5245066198533550
    One-Electron Energy =               -4266.3029295287951754
    Two-Electron Energy =                1921.5813568886878784
    DFT Exchange-Correlation Energy =     -87.7505342433788655
    Empirical Dispersion Energy =          -0.0258309411595863
    VV10 Nonlocal Energy =                  0.0000000000000000
    Total Energy =                       -895.9734312047926323

  Dipole Moment: [D]
     X:     5.4219      Y:    -0.1618      Z:    -0.7543     Total:     5.4766

    Molecular point group: c1
  Basis Set: 6-311G
    Blend: 6-311G
  Basis Set: (6-311G AUX)
    Blend: CC-PVTZ-JKFIT

  -Total Gradient:
     Atom            X                  Y                   Z
    ------   -----------------  -----------------  -----------------
       1        0.000214348806     0.006056855539     0.004030534565
       2       -0.000451126803    -0.006118048130    -0.001711240012
       3        0.000337604717     0.007438701859     0.000365358656
       4       -0.000381288222    -0.004991309652    -0.000288550403
       5        0.000010378637     0.000020010143     0.000012158911
       6        0.000474529828     0.000350886874    -0.000561318458
       7        0.000012823280     0.000223583232     0.000024426945
       8       -0.000184946123     0.000052084382     0.000044690540
       9        0.000283408572     0.000118795924     0.000086656746
      10        0.000084800725    -0.000185923241    -0.000014391412
      11       -0.000302535488    -0.000340675574     0.000334129391
      12        0.000009825497     0.000044050394     0.000003221980
      13       -0.000014280787     0.000007657923    -0.000016726269
      14        0.000003000596     0.000032233520    -0.000008458105
      15        0.000015603841     0.000035370664    -0.000001904319
      16        0.000165099796    -0.002550985342    -0.002347641057
      17       -0.000076043767    -0.000098281974     0.000007904938
      18       -0.000096084803     0.001425204419     0.001581011641
      19        0.000025929234    -0.000030942726    -0.000007111811
      20       -0.000062857697    -0.003129217253    -0.002707816626
      21       -0.000021314605    -0.000006612687    -0.000001675990
      22       -0.000219375641    -0.000101199219    -0.000044938521
      23        0.000002866885     0.000011157163    -0.000022375958
      24       -0.000009706029     0.000012688335    -0.000003004953
      25        0.000013719724     0.000022213956    -0.000006592077
      26        0.000012910423     0.000033380836    -0.000003068863
      27        0.000014182949     0.000041056843    -0.000007985118
      28        0.000007258003     0.000007608786     0.000031455849
      29        0.000019291870    -0.000029124508    -0.000014392497
      30        0.000004949739    -0.000002482635     0.000032621031
      31       -0.000022551685    -0.000010993596     0.000006406384
      32        0.000603284027     0.004486963297     0.002105608371
      33       -0.000005636950     0.000022741273     0.000024822692
      34        0.000007593217    -0.000040897398     0.000046315300
      35       -0.000488083680    -0.002746078376    -0.000978919343
      36        0.000002453463    -0.000132513564     0.000088420547

  **** Optimization is complete! (in 12 steps) ****
    Final optimized geometry and variables:
    Molecular point group: c1

    Geometry (in Angstrom), charge = 0, multiplicity = 1:

    C            1.870116048584    -0.100051852810    -0.408219358890
    N            0.589670860776     0.277417769928    -0.892785769444
    C           -0.625927996982     0.339553076276    -0.252787296490
    C           -0.807017988957     0.290596384284     1.106236092116
    H            0.570016835239     0.558294096277    -1.859177939623
    C           -1.758925248009     0.431596395021    -1.214613722361
    C            0.160744693939     0.541322971622     2.176359598482
    N           -1.817365819166     0.070931694278     3.133372929022
    C           -2.096610585154    -0.012713156140     1.772504331689
    C           -0.478957534212     0.413863269623     3.357015543120
    C           -2.752480502151     1.401161722160    -1.054711848664
    C           -1.815889220234    -0.431854493466    -2.314192306498
    C           -3.781424773189     1.509089015862    -1.981395202444
    C           -2.852773015529    -0.328472204542    -3.238017948512
    C           -3.835092957047     0.644469221484    -3.074349455037
    C            3.002036268234     0.483820903438    -0.980313297545
    C            2.043959831998    -1.140200316887     0.509314227288
    C            4.278588345094     0.079963359939    -0.611578491150
    C            3.318077182244    -1.544862480280     0.880742252809
    C            4.459894360854    -0.945499775370     0.326913424169
    H           -2.513181982605    -0.109453000873     3.830099423661
    O           -3.212241701794    -0.331244028859     1.314717519259
    H           -2.714646515482     2.060839313448    -0.199988589502
    H           -1.064765683145    -1.203096021120    -2.426474078905
    H           -4.546885124272     2.260818014837    -1.848009792614
    H           -2.898142801280    -1.011743134908    -4.075082381227
    H           -4.642100921327     0.725896853290    -3.789900586124
    H            2.884151731404     1.283793560718    -1.700909382368
    H            1.182305046196    -1.631005983169     0.935829543603
    H            5.141768417813     0.570241538596    -1.042641119667
    H            3.430290956921    -2.348175698089     1.597971509981
    N            5.736027037040    -1.318084881665     0.733797989578
    H            1.185690461651     0.836165088376     2.051472233409
    H           -0.107076397534     0.562936241951     4.355335609603
    H            6.504270411111    -1.219260227284     0.097709188666
    H            5.833011584937    -2.034673170595     1.428259204159

*** Psi4 exiting successfully. Buy a developer a beer!
