                               Psi4 1.5 release

  ==> Input File <==

--------------------------------------------------------------------------
molecule {
0 1
 C    1.563244   -0.685866   -0.208288
 N    0.440541   -0.753577    0.660620
 C   -0.698017   -0.005776    0.791106
 C   -1.900411   -0.671559    0.947426
 H    0.255377   -1.721531    0.939620
 C   -0.758769    1.446996    0.450848
 C   -3.263994   -0.161298    1.003081
 N   -3.338415   -2.405004    1.176486
 C   -1.993272   -2.124732    1.085738
 C   -4.094949   -1.220327    1.123881
 C   -1.307805    2.345128    1.372137
 C   -0.524381    1.885341   -0.858543
 C   -1.537749    3.673010    1.020196
 C   -0.759073    3.210200   -1.211671
 C   -1.257691    4.110700   -0.271451
 C    2.176233   -1.907024   -0.521696
 C    2.212573    0.491174   -0.592026
 C    3.325984   -1.955609   -1.293716
 C    3.371138    0.444213   -1.359755
 C    3.945794   -0.776873   -1.733797
 H   -3.694838   -3.335528    1.274670
 O   -1.062893   -2.981447    1.125975
 H   -1.540839    2.000563    2.370654
 H   -0.177281    1.185110   -1.604794
 H   -1.945947    4.358459    1.750257
 H   -0.570479    3.533671   -2.226201
 H   -1.442007    5.139453   -0.549151
 H    1.714035   -2.829041   -0.192055
 H    1.843625    1.450627   -0.269231
 H    3.748502   -2.915363   -1.561856
 H    3.851462    1.371732   -1.646136
 N    5.074541   -0.827406   -2.546392
 H   -3.559404    0.868706    0.915606
 H   -5.168729   -1.253217    1.162787
 H    5.703123   -1.604179   -2.464993
 H    5.482790    0.033071   -2.859698
}
memory 8.166666666666666GB
set_num_threads(2)
psi4_io.set_default_path("/scratch/bdw2292/Psi4-1_7_Index_0_GrowFragment_0-farH_in17")
set freeze_core True
E, wfn = energy('wb97x-d/6-311+G*',return_wfn=True)
oeprop(wfn,"WIBERG_LOWDIN_INDICES")
clean()
--------------------------------------------------------------------------

    Molecular point group: c1

    Geometry (in Angstrom), charge = 0, multiplicity = 1:

       Center              X                  Y                   Z               Mass
    ------------   -----------------  -----------------  -----------------  -----------------
         C            1.563243984949    -0.685866032021    -0.208287972589    12.000000000000
         N            0.440540984949    -0.753577032021     0.660620027411    14.003074004430
         C           -0.698017015051    -0.005776032021     0.791106027411    12.000000000000
         C           -1.900411015051    -0.671559032021     0.947426027411    12.000000000000
         H            0.255376984949    -1.721531032021     0.939620027411     1.007825032230
         C           -0.758769015051     1.446995967979     0.450848027411    12.000000000000
         C           -3.263994015051    -0.161298032021     1.003081027411    12.000000000000
         N           -3.338415015051    -2.405004032021     1.176486027411    14.003074004430
         C           -1.993272015051    -2.124732032021     1.085738027411    12.000000000000
         C           -4.094949015051    -1.220327032021     1.123881027411    12.000000000000
         C           -1.307805015051     2.345127967979     1.372137027411    12.000000000000
         C           -0.524381015051     1.885340967979    -0.858542972589    12.000000000000
         C           -1.537749015051     3.673009967979     1.020196027411    12.000000000000
         C           -0.759073015051     3.210199967979    -1.211670972589    12.000000000000
         C           -1.257691015051     4.110699967979    -0.271450972589    12.000000000000
         C            2.176232984949    -1.907024032021    -0.521695972589    12.000000000000
         C            2.212572984949     0.491173967979    -0.592025972589    12.000000000000
         C            3.325983984949    -1.955609032021    -1.293715972589    12.000000000000
         C            3.371137984949     0.444212967979    -1.359754972589    12.000000000000
         C            3.945793984949    -0.776873032021    -1.733796972589    12.000000000000
         H           -3.694838015051    -3.335528032021     1.274670027411     1.007825032230
         O           -1.062893015051    -2.981447032021     1.125975027411    15.994914619570
         H           -1.540839015051     2.000562967979     2.370654027411     1.007825032230
         H           -0.177281015051     1.185109967979    -1.604793972589     1.007825032230
         H           -1.945947015051     4.358458967979     1.750257027411     1.007825032230
         H           -0.570479015051     3.533670967979    -2.226200972589     1.007825032230
         H           -1.442007015051     5.139452967979    -0.549150972589     1.007825032230
         H            1.714034984949    -2.829041032021    -0.192054972589     1.007825032230
         H            1.843624984949     1.450626967979    -0.269230972589     1.007825032230
         H            3.748501984949    -2.915363032021    -1.561855972589     1.007825032230
         H            3.851461984949     1.371731967979    -1.646135972589     1.007825032230
         N            5.074540984949    -0.827406032021    -2.546391972589    14.003074004430
         H           -3.559404015051     0.868705967979     0.915606027411     1.007825032230
         H           -5.168729015051    -1.253217032021     1.162787027411     1.007825032230
         H            5.703122984949    -1.604179032021    -2.464992972589     1.007825032230
         H            5.482789984949     0.033070967979    -2.859697972589     1.007825032230

  Charge       = 0
  Multiplicity = 1
  Basis Set: 6-311+G*
    Blend: 6-311+G*
  Basis Set: (6-311+G* AUX)
    Blend: HEAVY-AUG-CC-PVTZ-JKFIT

    Orbital Energies [Eh]
    ---------------------

    Doubly Occupied:

       1A    -19.205323     2A    -14.464325     3A    -14.461834
       4A    -14.438569     5A    -10.377993     6A    -10.362699
       7A    -10.330884     8A    -10.328348     9A    -10.315852
      10A    -10.314212    11A    -10.301602    12A    -10.301240
      13A    -10.300769    14A    -10.299811    15A    -10.299616
      16A    -10.288065    17A    -10.287774    18A    -10.285249
      19A    -10.284146    20A    -10.284039    21A    -10.276987
      22A     -1.122801    23A     -1.060666    24A     -1.047333
      25A     -1.024207    26A     -0.976438    27A     -0.945540
      28A     -0.902881    29A     -0.869353    30A     -0.860793
      31A     -0.850640    32A     -0.840257    33A     -0.805674
      34A     -0.763926    35A     -0.725846    36A     -0.717600
      37A     -0.711839    38A     -0.692915    39A     -0.677907
      40A     -0.660965    41A     -0.634573    42A     -0.618383
      43A     -0.607838    44A     -0.601175    45A     -0.594594
      46A     -0.573116    47A     -0.555635    48A     -0.550657
      49A     -0.532487    50A     -0.524436    51A     -0.523633
      52A     -0.518927    53A     -0.511742    54A     -0.509360
      55A     -0.505996    56A     -0.497244    57A     -0.489387
      58A     -0.486472    59A     -0.472250    60A     -0.460884
      61A     -0.454776    62A     -0.441516    63A     -0.438652
      64A     -0.427209    65A     -0.404420    66A     -0.391974
      67A     -0.345029    68A     -0.343020    69A     -0.339182
      70A     -0.331551    71A     -0.328605    72A     -0.283386
      73A     -0.246682

  @DF-RKS Final Energy:  -896.20754240465624

   => Energetics <=

    Nuclear Repulsion Energy =           1539.4873389789204339
    One-Electron Energy =               -4272.5236428595017060
    Two-Electron Energy =                1924.6138971622692679
    DFT Exchange-Correlation Energy =     -87.7593093366425308
    Empirical Dispersion Energy =          -0.0258263497017659
    VV10 Nonlocal Energy =                  0.0000000000000000
    Total Energy =                       -896.2075424046563512

  Dipole Moment: [D]
     X:     0.5166      Y:     2.7533      Z:    -1.4327     Total:     3.1465

*** Psi4 exiting successfully. Buy a developer a beer!
