                               Psi4 1.5 release

  ==> Input File <==

--------------------------------------------------------------------------
molecule {
0 1
 C    1.543299   -0.205457    0.652415
 N    0.507265    0.772095    0.617559
 C   -0.699833    0.662449   -0.031355
 C   -1.474130   -0.466083   -0.010419
 H    0.791310    1.709058    0.851198
 C   -1.149043    1.902657   -0.716557
 C   -2.629396   -0.771829   -0.852496
 N   -2.350148   -2.474562    0.588325
 C   -1.319715   -1.601830    0.923252
 C   -3.113412   -1.973858   -0.474381
 C   -2.448045    2.393314   -0.538601
 C   -0.253788    2.617962   -1.522253
 C   -2.847123    3.569091   -1.166761
 C   -0.657046    3.790169   -2.155683
 C   -1.954614    4.267478   -1.979032
 C    2.382284   -0.278620    1.761717
 C    1.764463   -1.062496   -0.422883
 C    3.434075   -1.182224    1.794374
 C    2.812868   -1.972698   -0.393046
 C    3.672537   -2.041941    0.712152
 H   -2.503951   -3.332661    1.080396
 O   -0.522797   -1.780987    1.864303
 H   -3.131209    1.851838    0.100873
 H    0.750718    2.239508   -1.663207
 H   -3.850031    3.944808   -1.016914
 H    0.037168    4.327878   -2.786939
 H   -2.267668    5.179998   -2.467817
 H    2.178285    0.345095    2.621409
 H    1.110911   -1.024370   -1.284169
 H    4.056186   -1.252231    2.677381
 H    2.971733   -2.631882   -1.237577
 N    4.700834   -2.978243    0.765561
 H   -2.996175   -0.165132   -1.661351
 H   -3.935425   -2.539625   -0.875596
 H    5.520097   -2.780899    1.307576
 H    4.821666   -3.611016   -0.002116
}
memory 8.166666666666666GB
set_num_threads(2)
psi4_io.set_default_path("/scratch/bdw2292/Psi4-1_7_Index_0_GrowFragment_0-farH_in17")
set freeze_core True
E, wfn = energy('wb97x-d/6-311+G*',return_wfn=True)
oeprop(wfn,"WIBERG_LOWDIN_INDICES")
clean()
--------------------------------------------------------------------------

    Molecular point group: c1

    Geometry (in Angstrom), charge = 0, multiplicity = 1:

       Center              X                  Y                   Z               Mass
    ------------   -----------------  -----------------  -----------------  -----------------
         C            1.543298999540    -0.205456996095     0.652414898869    12.000000000000
         N            0.507264999540     0.772095003905     0.617558898869    14.003074004430
         C           -0.699833000460     0.662449003905    -0.031355101131    12.000000000000
         C           -1.474130000460    -0.466082996095    -0.010419101131    12.000000000000
         H            0.791309999540     1.709058003905     0.851197898869     1.007825032230
         C           -1.149043000460     1.902657003905    -0.716557101131    12.000000000000
         C           -2.629396000460    -0.771828996095    -0.852496101131    12.000000000000
         N           -2.350148000460    -2.474561996095     0.588324898869    14.003074004430
         C           -1.319715000460    -1.601829996095     0.923251898869    12.000000000000
         C           -3.113412000460    -1.973857996095    -0.474381101131    12.000000000000
         C           -2.448045000460     2.393314003905    -0.538601101131    12.000000000000
         C           -0.253788000460     2.617962003905    -1.522253101131    12.000000000000
         C           -2.847123000460     3.569091003905    -1.166761101131    12.000000000000
         C           -0.657046000460     3.790169003905    -2.155683101131    12.000000000000
         C           -1.954614000460     4.267478003905    -1.979032101131    12.000000000000
         C            2.382283999540    -0.278619996095     1.761716898869    12.000000000000
         C            1.764462999540    -1.062495996095    -0.422883101131    12.000000000000
         C            3.434074999540    -1.182223996095     1.794373898869    12.000000000000
         C            2.812867999540    -1.972697996095    -0.393046101131    12.000000000000
         C            3.672536999540    -2.041940996095     0.712151898869    12.000000000000
         H           -2.503951000460    -3.332660996095     1.080395898869     1.007825032230
         O           -0.522797000460    -1.780986996095     1.864302898869    15.994914619570
         H           -3.131209000460     1.851838003905     0.100872898869     1.007825032230
         H            0.750717999540     2.239508003905    -1.663207101131     1.007825032230
         H           -3.850031000460     3.944808003905    -1.016914101131     1.007825032230
         H            0.037167999540     4.327878003905    -2.786939101131     1.007825032230
         H           -2.267668000460     5.179998003905    -2.467817101131     1.007825032230
         H            2.178284999540     0.345095003905     2.621408898869     1.007825032230
         H            1.110910999540    -1.024369996095    -1.284169101131     1.007825032230
         H            4.056185999540    -1.252230996095     2.677380898869     1.007825032230
         H            2.971732999540    -2.631881996095    -1.237577101131     1.007825032230
         N            4.700833999540    -2.978242996095     0.765560898869    14.003074004430
         H           -2.996175000460    -0.165131996095    -1.661351101131     1.007825032230
         H           -3.935425000460    -2.539624996095    -0.875596101131     1.007825032230
         H            5.520096999540    -2.780898996095     1.307575898869     1.007825032230
         H            4.821665999540    -3.611015996095    -0.002116101131     1.007825032230

  Charge       = 0
  Multiplicity = 1
  Basis Set: 6-311+G*
    Blend: 6-311+G*
  Basis Set: (6-311+G* AUX)
    Blend: HEAVY-AUG-CC-PVTZ-JKFIT

    Orbital Energies [Eh]
    ---------------------

    Doubly Occupied:

       1A    -19.190931     2A    -14.463524     3A    -14.453121
       4A    -14.431647     5A    -10.369259     6A    -10.351958
       7A    -10.323658     8A    -10.314590     9A    -10.313232
      10A    -10.312063    11A    -10.303852    12A    -10.302878
      13A    -10.301692    14A    -10.301583    15A    -10.300789
      16A    -10.281310    17A    -10.280397    18A    -10.279651
      19A    -10.276921    20A    -10.275708    21A    -10.271887
      22A     -1.111733    23A     -1.059065    24A     -1.037687
      25A     -1.017060    26A     -0.976003    27A     -0.936315
      28A     -0.898897    29A     -0.867019    30A     -0.860948
      31A     -0.843430    32A     -0.827201    33A     -0.806473
      34A     -0.759431    35A     -0.719399    36A     -0.715973
      37A     -0.702360    38A     -0.696152    39A     -0.677210
      40A     -0.645129    41A     -0.632010    42A     -0.619675
      43A     -0.603367    44A     -0.596614    45A     -0.587847
      46A     -0.576176    47A     -0.557422    48A     -0.546275
      49A     -0.527101    50A     -0.526219    51A     -0.521959
      52A     -0.511877    53A     -0.508374    54A     -0.504604
      55A     -0.502013    56A     -0.487223    57A     -0.476707
      58A     -0.472009    59A     -0.467545    60A     -0.462697
      61A     -0.444167    62A     -0.440086    63A     -0.434378
      64A     -0.416271    65A     -0.397334    66A     -0.385629
      67A     -0.348629    68A     -0.344360    69A     -0.330699
      70A     -0.324305    71A     -0.317761    72A     -0.270997
      73A     -0.245742

  @DF-RKS Final Energy:  -896.20870087775438

   => Energetics <=

    Nuclear Repulsion Energy =           1549.3069089315717974
    One-Electron Energy =               -4292.8994119334802235
    Two-Electron Energy =                1935.1631742533495526
    DFT Exchange-Correlation Energy =     -87.7533277700218264
    Empirical Dispersion Energy =          -0.0260443591737814
    VV10 Nonlocal Energy =                  0.0000000000000000
    Total Energy =                       -896.2087008777543815

  Dipole Moment: [D]
     X:     0.6141      Y:     1.4556      Z:    -2.7109     Total:     3.1376

*** Psi4 exiting successfully. Buy a developer a beer!
