                               Psi4 1.5 release

  ==> Input File <==

--------------------------------------------------------------------------
molecule {
0 1
 C    1.788340   -0.110096    0.094941
 N    0.715927    0.176491    0.992475
 C   -0.609597    0.508485    0.874521
 C   -1.477940   -0.539570    1.188818
 H    0.839783   -0.282761    1.916728
 C   -1.151771    1.540799   -0.069479
 C   -2.547461   -1.158881    0.444897
 N   -2.414755   -2.129966    2.477287
 C   -1.402865   -1.199193    2.493602
 C   -3.092025   -2.109326    1.252466
 C   -2.021629    2.528263    0.462288
 C   -1.087834    1.410149   -1.483229
 C   -2.667042    3.447707   -0.374309
 C   -1.727046    2.334113   -2.320342
 C   -2.507781    3.369519   -1.771381
 C    2.779942   -1.030677    0.531274
 C    1.940835    0.482983   -1.180568
 C    3.839390   -1.394597   -0.312158
 C    2.996013    0.102325   -2.023624
 C    3.966744   -0.844026   -1.611443
 H   -2.599423   -2.731824    3.266733
 O   -0.583558   -1.001648    3.418627
 H   -2.171554    2.577919    1.542985
 H   -0.569694    0.560083   -1.926859
 H   -3.295224    4.227391    0.060032
 H   -1.627449    2.241327   -3.403359
 H   -2.999945    4.093641   -2.422854
 H    2.693191   -1.467073    1.529934
 H    1.274569    1.279264   -1.489153
 H    4.568843   -2.121878    0.051583
 H    3.067224    0.566265   -3.010123
 N    5.031628   -1.224952   -2.472812
 H   -2.873511   -0.912117   -0.555222
 H   -3.915234   -2.786765    1.073257
 H    5.846881   -1.474846   -1.907151
 H    5.358413   -0.398027   -2.979510
}
set optking {
  frozen_dihedral = ("
    1 2 3 4
    16 1 2 3
    2 3 6 11
    18 20 32 35
  ")
}
set {
  geom_maxiter 400
  g_convergence GAU_LOOSE
  dynamic_level 1
}
memory 8.166666666666666GB
set_num_threads(2)
psi4_io.set_default_path("/scratch/bdw2292/Psi4-1_7_Index_0_GrowFragment_0-farH_in17")
for _ in range(1):
  try:
    set opt_coordinates both
    optimize('wb97x-d/6-311G')
    break
  except OptimizationConvergenceError:
    break
  else:
    try:
      set opt_coordinates cartesian
      optimize('wb97x-d/6-311G')
      break
    except OptimizationConvergenceError:
      pass
clean()
--------------------------------------------------------------------------

    Molecular point group: c1
  Charge       = 0
  Multiplicity = 1
  Basis Set: 6-311G
    Blend: 6-311G
  Basis Set: (6-311G AUX)
    Blend: CC-PVTZ-JKFIT
  @DF-RKS Final Energy:  -895.89473847692034
    Total Energy =                       -895.8947384769204518
    Molecular point group: c1
  Basis Set: 6-311G
    Blend: 6-311G
  Basis Set: (6-311G AUX)
    Blend: CC-PVTZ-JKFIT
  Basis Set: 6-311G
    Blend: 6-311G
  Basis Set: (6-311G AUX)
    Blend: CC-PVTZ-JKFIT
  @DF-RKS Final Energy:  -895.91712501194922
    Total Energy =                       -895.9171250119491106
  Basis Set: 6-311G
    Blend: 6-311G
  Basis Set: (6-311G AUX)
    Blend: CC-PVTZ-JKFIT
  Basis Set: 6-311G
    Blend: 6-311G
  @DF-RKS Final Energy:  -895.92833418982275
    Total Energy =                       -895.9283341898227491
  @DF-RKS Final Energy:  -895.94413029911766
    Total Energy =                       -895.9441302991176599
  @DF-RKS Final Energy:  -895.94897289562493
    Total Energy =                       -895.9489728956250474
  @DF-RKS Final Energy:  -895.95067211887761
    Total Energy =                       -895.9506721188776055
  @DF-RKS Final Energy:  -895.95072129951586
    Total Energy =                       -895.9507212995157488
  @DF-RKS Final Energy:  -895.95136083406032
    Total Energy =                       -895.9513608340603241
  @DF-RKS Final Energy:  -895.95144056284084
    Total Energy =                       -895.9514405628408440
  @DF-RKS Final Energy:  -895.95157550524698
    Total Energy =                       -895.9515755052468649
  Basis Set: (6-311G AUX)
    Blend: CC-PVTZ-JKFIT
  Basis Set: 6-311G
    Blend: 6-311G
  Basis Set: (6-311G AUX)
    Blend: CC-PVTZ-JKFIT
  @DF-RKS Final Energy:  -895.95160962573664
    Total Energy =                       -895.9516096257366371
  Basis Set: 6-311G
    Blend: 6-311G
  Basis Set: (6-311G AUX)
    Blend: CC-PVTZ-JKFIT
  Charge       = 0
  Multiplicity = 1
  Basis Set: 6-311G
    Blend: 6-311G
  Basis Set: (6-311G AUX)
    Blend: CC-PVTZ-JKFIT

    Orbital Energies [Eh]
    ---------------------

    Doubly Occupied:

       1A    -19.215848     2A    -14.472580     3A    -14.451312
       4A    -14.428084     5A    -10.396985     6A    -10.366694
       7A    -10.328914     8A    -10.328377     9A    -10.328052
      10A    -10.317689    11A    -10.302274    12A    -10.301991
      13A    -10.301563    14A    -10.301003    15A    -10.300829
      16A    -10.300652    17A    -10.285488    18A    -10.283155
      19A    -10.282773    20A    -10.281137    21A    -10.280219
      22A     -1.147476    23A     -1.064852    24A     -1.054287
      25A     -1.019011    26A     -0.980315    27A     -0.945091
      28A     -0.908751    29A     -0.874874    30A     -0.863217
      31A     -0.848017    32A     -0.842512    33A     -0.812566
      34A     -0.769504    35A     -0.725304    36A     -0.716943
      37A     -0.711497    38A     -0.697272    39A     -0.685172
      40A     -0.659265    41A     -0.636745    42A     -0.615805
      43A     -0.607421    44A     -0.601240    45A     -0.595824
      46A     -0.575026    47A     -0.556412    48A     -0.554123
      49A     -0.535130    50A     -0.531748    51A     -0.524705
      52A     -0.522216    53A     -0.517920    54A     -0.506993
      55A     -0.504726    56A     -0.502722    57A     -0.491200
      58A     -0.482612    59A     -0.471123    60A     -0.462429
      61A     -0.448500    62A     -0.438676    63A     -0.432285
      64A     -0.420283    65A     -0.412160    66A     -0.384794
      67A     -0.344930    68A     -0.340188    69A     -0.339492
      70A     -0.330386    71A     -0.325991    72A     -0.282528
      73A     -0.243637

  @DF-RKS Final Energy:  -895.95163652105941

   => Energetics <=

    Nuclear Repulsion Energy =           1533.4458962906883244
    One-Electron Energy =               -4259.7223434193692810
    Two-Electron Energy =                1918.0931786199860198
    DFT Exchange-Correlation Energy =     -87.7428857971885350
    Empirical Dispersion Energy =          -0.0254822151757886
    VV10 Nonlocal Energy =                  0.0000000000000000
    Total Energy =                       -895.9516365210592994

  Dipole Moment: [D]
     X:    -1.6762      Y:    -0.3707      Z:    -1.9657     Total:     2.6098

    Molecular point group: c1
  Basis Set: 6-311G
    Blend: 6-311G
  Basis Set: (6-311G AUX)
    Blend: CC-PVTZ-JKFIT

  -Total Gradient:
     Atom            X                  Y                   Z
    ------   -----------------  -----------------  -----------------
       1       -0.002892406561    -0.022923170669     0.008558373771
       2        0.001359058014     0.001723153879    -0.020974462743
       3       -0.005185507284     0.027066801555     0.029229536052
       4        0.000703317538    -0.012810925266    -0.012075121401
       5        0.000031287149     0.000084594840    -0.000360862251
       6        0.009953525063     0.007799487754    -0.003760737408
       7        0.000051288091    -0.000130353691     0.000110267280
       8       -0.000076720631     0.000176971513    -0.000155406654
       9        0.000314802184    -0.000160065360     0.000044362314
      10        0.000151061557    -0.000099861341     0.000191478034
      11       -0.006783173483    -0.008888055658     0.000043749930
      12       -0.000131042892     0.000037418446    -0.000041918238
      13        0.000148199103    -0.000022281226     0.000018072790
      14        0.000195817647    -0.000027921689    -0.000000522801
      15       -0.000082668114     0.000011700189     0.000135230248
      16        0.002525746491     0.008269186113    -0.001076646832
      17       -0.000011704995    -0.000003874776    -0.000007397869
      18       -0.000546905353    -0.001737304978    -0.000195772419
      19        0.000022912908     0.000050040902    -0.000016645616
      20        0.000982084359     0.003309111654    -0.000306912403
      21        0.000032261155    -0.000013331018    -0.000035330236
      22       -0.000422760675    -0.000079237659    -0.000012607510
      23       -0.000022187025    -0.000002582758    -0.000017141912
      24        0.000125048040    -0.000021685562    -0.000025215408
      25       -0.000014593990     0.000003217850     0.000050109421
      26        0.000035245524     0.000029179011     0.000059612935
      27        0.000050182773     0.000013033063     0.000039706606
      28       -0.000020767815     0.000025716908    -0.000063764499
      29       -0.000087080140     0.000012490447     0.000067728008
      30        0.000007225476     0.000041052336    -0.000037422995
      31        0.000049724076     0.000016130973     0.000031968105
      32       -0.000433800284    -0.003865758042     0.001346213827
      33        0.000023951763     0.000067652975    -0.000028370146
      34        0.000050169752    -0.000000587445    -0.000030313618
      35        0.000071083532     0.002288242725    -0.001155367941
      36       -0.000004745210     0.000031461754     0.000195328500

  **** Optimization is complete! (in 12 steps) ****
    Final optimized geometry and variables:
    Molecular point group: c1

    Geometry (in Angstrom), charge = 0, multiplicity = 1:

    C            1.733313646483     0.118836691968    -0.207481193824
    N            0.691293783236     0.576315302507     0.655401253472
    C           -0.700282103236     0.479129152436     0.643021378067
    C           -1.296967325434    -0.394925997130     1.519592414428
    H            0.996316029116     0.359442109680     1.603479317552
    C           -1.562233794690     1.064303133552    -0.432281710546
    C           -2.698316349459    -0.782973669120     1.659164886167
    N           -1.507179537855    -1.889837424750     3.219624741874
    C           -0.563521198040    -1.115140943167     2.581408901918
    C           -2.779089606804    -1.688064359185     2.656863803688
    C           -2.645161221598     1.865258733101    -0.039846737585
    C           -1.533330924505     0.608806196320    -1.754900316255
    C           -3.588655218564     2.303905218995    -0.963490305901
    C           -2.476541286077     1.043861236446    -2.682064903121
    C           -3.498710901013     1.906232459483    -2.294977958452
    C            2.950047226543    -0.194717508817     0.420118101875
    C            1.726454251685     0.170792252223    -1.602162757718
    C            4.064700496187    -0.570009818130    -0.310410549066
    C            2.850178552899    -0.193485796365    -2.340437649414
    C            4.036707743515    -0.581770122971    -1.712801315946
    H           -1.286192113843    -2.486861648497     3.992605661046
    O            0.648041346207    -1.040176416057     2.906061538180
    H           -2.726651797408     2.167153458983     0.995701676890
    H           -0.816995630712    -0.139381734042    -2.051555296910
    H           -4.398840016152     2.942442005866    -0.638805402675
    H           -2.426636255663     0.682929920811    -3.700250313009
    H           -4.230879488615     2.242334069129    -3.016137169191
    H            2.997788569521    -0.204985015813     1.501237451619
    H            0.876706232478     0.555214976753    -2.134678947408
    H            4.969011931118    -0.859776989665     0.209221686097
    H            2.807846144608    -0.142842274501    -3.421618868453
    N            5.145806569350    -0.999312806126    -2.444746669436
    H           -3.507423157137    -0.456014638918     1.031943893378
    H           -3.628937495847    -2.237770040236     3.019469763024
    H            6.063261603189    -0.864649812090    -2.064436076421
    H            5.084903063853    -1.017567984035    -3.444930361677

*** Psi4 exiting successfully. Buy a developer a beer!
