                               Psi4 1.5 release

  ==> Input File <==

--------------------------------------------------------------------------
molecule {
0 1
 C    1.604757   -0.476988   -0.152527
 N    0.511506   -0.554768    0.746850
 C   -0.711759    0.034834    0.728147
 C   -1.697788   -0.467064    1.559796
 H    0.581763   -1.287410    1.461756
 C   -1.076519    1.031067   -0.315734
 C   -3.104180   -0.115256    1.685916
 N   -2.657566   -1.794327    3.116249
 C   -1.450943   -1.553774    2.497188
 C   -3.649126   -0.931008    2.617030
 C   -1.647623    2.253253    0.048461
 C   -0.980040    0.698359   -1.672655
 C   -2.071553    3.151776   -0.928834
 C   -1.410635    1.592705   -2.645681
 C   -1.950626    2.824993   -2.277024
 C    2.425181   -1.605567   -0.257285
 C    1.990351    0.689514   -0.819352
 C    3.551680   -1.598429   -1.066721
 C    3.120674    0.699642   -1.626977
 C    3.920990   -0.442436   -1.769895
 H   -2.781229   -2.503567    3.812013
 O   -0.371678   -2.181522    2.719008
 H   -1.744665    2.501967    1.096565
 H   -0.567968   -0.258380   -1.961459
 H   -2.498773    4.101012   -0.635691
 H   -1.330219    1.325705   -3.690446
 H   -2.281741    3.520589   -3.036039
 H    2.155990   -2.506007    0.280062
 H    1.424330    1.600001   -0.699291
 H    4.148565   -2.496393   -1.160853
 H    3.398690    1.614641   -2.135077
 N    5.024035   -0.447547   -2.617981
 H   -3.624813    0.636354    1.120092
 H   -4.659930   -0.989951    2.977648
 H    5.794267   -1.057181   -2.417672
 H    5.250519    0.390075   -3.120180
}
memory 8.166666666666666GB
set_num_threads(2)
psi4_io.set_default_path("/scratch/bdw2292/Psi4-1_7_Index_0_GrowFragment_0-farH_in17")
set freeze_core True
E, wfn = energy('wb97x-d/6-311+G*',return_wfn=True)
oeprop(wfn,"WIBERG_LOWDIN_INDICES")
clean()
--------------------------------------------------------------------------

    Molecular point group: c1

    Geometry (in Angstrom), charge = 0, multiplicity = 1:

       Center              X                  Y                   Z               Mass
    ------------   -----------------  -----------------  -----------------  -----------------
         C            1.604757129591    -0.476987972080    -0.152526980048    12.000000000000
         N            0.511506129591    -0.554767972080     0.746850019952    14.003074004430
         C           -0.711758870409     0.034834027920     0.728147019952    12.000000000000
         C           -1.697787870409    -0.467063972080     1.559796019952    12.000000000000
         H            0.581763129591    -1.287409972080     1.461756019952     1.007825032230
         C           -1.076518870409     1.031067027920    -0.315733980048    12.000000000000
         C           -3.104179870409    -0.115255972080     1.685916019952    12.000000000000
         N           -2.657565870409    -1.794326972080     3.116249019952    14.003074004430
         C           -1.450942870409    -1.553773972080     2.497188019952    12.000000000000
         C           -3.649125870409    -0.931007972080     2.617030019952    12.000000000000
         C           -1.647622870409     2.253253027920     0.048461019952    12.000000000000
         C           -0.980039870409     0.698359027920    -1.672654980048    12.000000000000
         C           -2.071552870409     3.151776027920    -0.928833980048    12.000000000000
         C           -1.410634870409     1.592705027920    -2.645680980048    12.000000000000
         C           -1.950625870409     2.824993027920    -2.277023980048    12.000000000000
         C            2.425181129591    -1.605566972080    -0.257284980048    12.000000000000
         C            1.990351129591     0.689514027920    -0.819351980048    12.000000000000
         C            3.551680129591    -1.598428972080    -1.066720980048    12.000000000000
         C            3.120674129591     0.699642027920    -1.626976980048    12.000000000000
         C            3.920990129591    -0.442435972080    -1.769894980048    12.000000000000
         H           -2.781228870409    -2.503566972080     3.812013019952     1.007825032230
         O           -0.371677870409    -2.181521972080     2.719008019952    15.994914619570
         H           -1.744664870409     2.501967027920     1.096565019952     1.007825032230
         H           -0.567967870409    -0.258379972080    -1.961458980048     1.007825032230
         H           -2.498772870409     4.101012027920    -0.635690980048     1.007825032230
         H           -1.330218870409     1.325705027920    -3.690445980048     1.007825032230
         H           -2.281740870409     3.520589027920    -3.036038980048     1.007825032230
         H            2.155990129591    -2.506006972080     0.280062019952     1.007825032230
         H            1.424330129591     1.600001027920    -0.699290980048     1.007825032230
         H            4.148565129591    -2.496392972080    -1.160852980048     1.007825032230
         H            3.398690129591     1.614641027920    -2.135076980048     1.007825032230
         N            5.024035129591    -0.447546972080    -2.617980980048    14.003074004430
         H           -3.624812870409     0.636354027920     1.120092019952     1.007825032230
         H           -4.659929870409    -0.989950972080     2.977648019952     1.007825032230
         H            5.794267129591    -1.057180972080    -2.417671980048     1.007825032230
         H            5.250519129591     0.390075027920    -3.120179980048     1.007825032230

  Charge       = 0
  Multiplicity = 1
  Basis Set: 6-311+G*
    Blend: 6-311+G*
  Basis Set: (6-311+G* AUX)
    Blend: HEAVY-AUG-CC-PVTZ-JKFIT

    Orbital Energies [Eh]
    ---------------------

    Doubly Occupied:

       1A    -19.200564     2A    -14.466349     3A    -14.460782
       4A    -14.440815     5A    -10.372526     6A    -10.361581
       7A    -10.333857     8A    -10.328232     9A    -10.314238
      10A    -10.311200    11A    -10.302270    12A    -10.301417
      13A    -10.301259    14A    -10.300449    15A    -10.299693
      16A    -10.291295    17A    -10.290847    18A    -10.287350
      19A    -10.286590    20A    -10.278056    21A    -10.274336
      22A     -1.118057    23A     -1.064591    24A     -1.043276
      25A     -1.026626    26A     -0.976400    27A     -0.947512
      28A     -0.901543    29A     -0.868810    30A     -0.860908
      31A     -0.853116    32A     -0.840956    33A     -0.804416
      34A     -0.763235    35A     -0.726821    36A     -0.718926
      37A     -0.714076    38A     -0.692116    39A     -0.675795
      40A     -0.663614    41A     -0.634631    42A     -0.621223
      43A     -0.610023    44A     -0.602269    45A     -0.591789
      46A     -0.574646    47A     -0.557079    48A     -0.549612
      49A     -0.533533    50A     -0.528359    51A     -0.522752
      52A     -0.517101    53A     -0.512479    54A     -0.509370
      55A     -0.505938    56A     -0.494590    57A     -0.487710
      58A     -0.484710    59A     -0.471986    60A     -0.461278
      61A     -0.458170    62A     -0.443693    63A     -0.439627
      64A     -0.428979    65A     -0.400173    66A     -0.396256
      67A     -0.346630    68A     -0.343712    69A     -0.336388
      70A     -0.331629    71A     -0.327314    72A     -0.282252
      73A     -0.246272

  @DF-RKS Final Energy:  -896.22057630290806

   => Energetics <=

    Nuclear Repulsion Energy =           1543.3745722363526056
    One-Electron Energy =               -4280.3109196505774889
    Two-Electron Energy =                1928.5061922230022446
    DFT Exchange-Correlation Energy =     -87.7645222689500315
    Empirical Dispersion Energy =          -0.0258988427356616
    VV10 Nonlocal Energy =                  0.0000000000000000
    Total Energy =                       -896.2205763029080572

  Dipole Moment: [D]
     X:     0.4921      Y:     2.3015      Z:    -2.8383     Total:     3.6871

*** Psi4 exiting successfully. Buy a developer a beer!
