                               Psi4 1.5 release

  ==> Input File <==

--------------------------------------------------------------------------
molecule {
0 1
 C    1.607542   -0.470484   -0.480929
 N    0.216471   -0.507065   -0.778526
 C   -0.875322    0.006196   -0.120031
 C   -1.109712   -0.099357    1.230728
 H    0.073471   -0.548863   -1.775692
 C   -1.884948    0.604543   -1.046293
 C   -2.174104    0.530772    2.014627
 N   -1.231190   -1.052794    3.296666
 C   -0.546233   -1.162874    2.092601
 C   -2.197361   -0.044810    3.234958
 C   -2.421368    1.878490   -0.832042
 C   -2.356369   -0.151881   -2.128757
 C   -3.386190    2.393273   -1.694121
 C   -3.320267    0.365097   -2.989061
 C   -3.838700    1.639994   -2.774845
 C    2.468788   -0.486009   -1.588017
 C    2.162483   -0.223192    0.774537
 C    3.838855   -0.344979   -1.444970
 C    3.539062   -0.082344    0.919969
 C    4.405379   -0.161004   -0.175087
 H   -1.075620   -1.684734    4.057429
 O    0.280559   -2.063220    1.838176
 H   -2.052132    2.484311   -0.017121
 H   -1.998452   -1.163162   -2.278235
 H   -3.780213    3.385720   -1.522587
 H   -3.675685   -0.234611   -3.815800
 H   -4.589910    2.040626   -3.441324
 H    2.059038   -0.615594   -2.583832
 H    1.544755   -0.143234    1.647202
 H    4.473989   -0.352257   -2.321367
 H    3.944037    0.085198    1.910112
 N    5.780109    0.002664   -0.028057
 H   -2.822972    1.324292    1.696245
 H   -2.822299    0.173582    4.082634
 H    6.399039   -0.434071   -0.684187
 H    6.152612    0.157156    0.889570
}
memory 8.166666666666666GB
set_num_threads(2)
psi4_io.set_default_path("/scratch/bdw2292/Psi4-1_7_Index_0_GrowFragment_0-farH_in17")
set freeze_core True
E, wfn = energy('wb97x-d/6-311+G*',return_wfn=True)
oeprop(wfn,"WIBERG_LOWDIN_INDICES")
clean()
--------------------------------------------------------------------------

    Molecular point group: c1

    Geometry (in Angstrom), charge = 0, multiplicity = 1:

       Center              X                  Y                   Z               Mass
    ------------   -----------------  -----------------  -----------------  -----------------
         C            1.607541923450    -0.470483994362    -0.480929026742    12.000000000000
         N            0.216470923450    -0.507064994362    -0.778526026742    14.003074004430
         C           -0.875322076550     0.006196005638    -0.120031026742    12.000000000000
         C           -1.109712076550    -0.099356994362     1.230727973258    12.000000000000
         H            0.073470923450    -0.548862994362    -1.775692026742     1.007825032230
         C           -1.884948076550     0.604543005638    -1.046293026742    12.000000000000
         C           -2.174104076550     0.530772005638     2.014626973258    12.000000000000
         N           -1.231190076550    -1.052793994362     3.296665973258    14.003074004430
         C           -0.546233076550    -1.162873994362     2.092600973258    12.000000000000
         C           -2.197361076550    -0.044809994362     3.234957973258    12.000000000000
         C           -2.421368076550     1.878490005638    -0.832042026742    12.000000000000
         C           -2.356369076550    -0.151880994362    -2.128757026742    12.000000000000
         C           -3.386190076550     2.393273005638    -1.694121026742    12.000000000000
         C           -3.320267076550     0.365097005638    -2.989061026742    12.000000000000
         C           -3.838700076550     1.639994005638    -2.774845026742    12.000000000000
         C            2.468787923450    -0.486008994362    -1.588017026742    12.000000000000
         C            2.162482923450    -0.223191994362     0.774536973258    12.000000000000
         C            3.838854923450    -0.344978994362    -1.444970026742    12.000000000000
         C            3.539061923450    -0.082343994362     0.919968973258    12.000000000000
         C            4.405378923450    -0.161003994362    -0.175087026742    12.000000000000
         H           -1.075620076550    -1.684733994362     4.057428973258     1.007825032230
         O            0.280558923450    -2.063219994362     1.838175973258    15.994914619570
         H           -2.052132076550     2.484311005638    -0.017121026742     1.007825032230
         H           -1.998452076550    -1.163161994362    -2.278235026742     1.007825032230
         H           -3.780213076550     3.385720005638    -1.522587026742     1.007825032230
         H           -3.675685076550    -0.234610994362    -3.815800026742     1.007825032230
         H           -4.589910076550     2.040626005638    -3.441324026742     1.007825032230
         H            2.059037923450    -0.615593994362    -2.583832026742     1.007825032230
         H            1.544754923450    -0.143233994362     1.647201973258     1.007825032230
         H            4.473988923450    -0.352256994362    -2.321367026742     1.007825032230
         H            3.944036923450     0.085198005638     1.910111973258     1.007825032230
         N            5.780108923450     0.002664005638    -0.028057026742    14.003074004430
         H           -2.822972076550     1.324292005638     1.696244973258     1.007825032230
         H           -2.822299076550     0.173582005638     4.082633973258     1.007825032230
         H            6.399038923450    -0.434070994362    -0.684187026742     1.007825032230
         H            6.152611923450     0.157156005638     0.889569973258     1.007825032230

  Charge       = 0
  Multiplicity = 1
  Basis Set: 6-311+G*
    Blend: 6-311+G*
  Basis Set: (6-311+G* AUX)
    Blend: HEAVY-AUG-CC-PVTZ-JKFIT

    Orbital Energies [Eh]
    ---------------------

    Doubly Occupied:

       1A    -19.195090     2A    -14.476414     3A    -14.458030
       4A    -14.432776     5A    -10.374437     6A    -10.361094
       7A    -10.324278     8A    -10.324085     9A    -10.318936
      10A    -10.316569    11A    -10.306119    12A    -10.303926
      13A    -10.303579    14A    -10.302922    15A    -10.301567
      16A    -10.288444    17A    -10.287807    18A    -10.279558
      19A    -10.278212    20A    -10.275546    21A    -10.275019
      22A     -1.117158    23A     -1.068570    24A     -1.042635
      25A     -1.018248    26A     -0.978642    27A     -0.940223
      28A     -0.903027    29A     -0.870449    30A     -0.863386
      31A     -0.845818    32A     -0.832525    33A     -0.810165
      34A     -0.763121    35A     -0.725041    36A     -0.720996
      37A     -0.703810    38A     -0.698725    39A     -0.679986
      40A     -0.650512    41A     -0.637260    42A     -0.618594
      43A     -0.604799    44A     -0.597367    45A     -0.593270
      46A     -0.578861    47A     -0.557886    48A     -0.550074
      49A     -0.530418    50A     -0.526281    51A     -0.522488
      52A     -0.518008    53A     -0.510328    54A     -0.506972
      55A     -0.502309    56A     -0.494578    57A     -0.487002
      58A     -0.476378    59A     -0.470411    60A     -0.467094
      61A     -0.449793    62A     -0.445795    63A     -0.439537
      64A     -0.423582    65A     -0.397282    66A     -0.390260
      67A     -0.346161    68A     -0.343792    69A     -0.333001
      70A     -0.330112    71A     -0.320387    72A     -0.274212
      73A     -0.247477

  @DF-RKS Final Energy:  -896.19577837851239

   => Energetics <=

    Nuclear Repulsion Energy =           1535.7362581530808257
    One-Electron Energy =               -4265.2109507945297082
    Two-Electron Energy =                1921.0539503273018909
    DFT Exchange-Correlation Energy =     -87.7498930773492134
    Empirical Dispersion Energy =          -0.0251429870159281
    VV10 Nonlocal Energy =                  0.0000000000000000
    Total Energy =                       -896.1957783785123866

  Dipole Moment: [D]
     X:    -0.6115      Y:     2.1042      Z:    -1.1006     Total:     2.4521

*** Psi4 exiting successfully. Buy a developer a beer!
