                               Psi4 1.5 release

  ==> Input File <==

--------------------------------------------------------------------------
molecule {
0 1
 C    1.733314    0.118837   -0.207481
 N    0.691294    0.576315    0.655401
 C   -0.700282    0.479129    0.643021
 C   -1.296967   -0.394926    1.519592
 H    0.996316    0.359442    1.603479
 C   -1.562234    1.064303   -0.432282
 C   -2.698316   -0.782974    1.659165
 N   -1.507180   -1.889837    3.219625
 C   -0.563521   -1.115141    2.581409
 C   -2.779090   -1.688064    2.656864
 C   -2.645161    1.865259   -0.039847
 C   -1.533331    0.608806   -1.754900
 C   -3.588655    2.303905   -0.963490
 C   -2.476541    1.043861   -2.682065
 C   -3.498711    1.906232   -2.294978
 C    2.950047   -0.194718    0.420118
 C    1.726454    0.170792   -1.602163
 C    4.064700   -0.570010   -0.310411
 C    2.850179   -0.193486   -2.340438
 C    4.036708   -0.581770   -1.712801
 H   -1.286192   -2.486862    3.992606
 O    0.648041   -1.040176    2.906062
 H   -2.726652    2.167153    0.995702
 H   -0.816996   -0.139382   -2.051555
 H   -4.398840    2.942442   -0.638805
 H   -2.426636    0.682930   -3.700250
 H   -4.230879    2.242334   -3.016137
 H    2.997789   -0.204985    1.501237
 H    0.876706    0.555215   -2.134679
 H    4.969012   -0.859777    0.209222
 H    2.807846   -0.142842   -3.421619
 N    5.145807   -0.999313   -2.444747
 H   -3.507423   -0.456015    1.031944
 H   -3.628937   -2.237770    3.019470
 H    6.063262   -0.864650   -2.064436
 H    5.084903   -1.017568   -3.444930
}
memory 8.166666666666666GB
set_num_threads(2)
psi4_io.set_default_path("/scratch/bdw2292/Psi4-1_7_Index_0_GrowFragment_0-farH_in17")
set freeze_core True
E, wfn = energy('wb97x-d/6-311+G*',return_wfn=True)
oeprop(wfn,"WIBERG_LOWDIN_INDICES")
clean()
--------------------------------------------------------------------------

    Molecular point group: c1

    Geometry (in Angstrom), charge = 0, multiplicity = 1:

       Center              X                  Y                   Z               Mass
    ------------   -----------------  -----------------  -----------------  -----------------
         C            1.733313961770     0.118837065236    -0.207480970283    12.000000000000
         N            0.691293961770     0.576315065236     0.655401029717    14.003074004430
         C           -0.700282038230     0.479129065236     0.643021029717    12.000000000000
         C           -1.296967038230    -0.394925934764     1.519592029717    12.000000000000
         H            0.996315961770     0.359442065236     1.603479029717     1.007825032230
         C           -1.562234038230     1.064303065236    -0.432281970283    12.000000000000
         C           -2.698316038230    -0.782973934764     1.659165029717    12.000000000000
         N           -1.507180038230    -1.889836934764     3.219625029717    14.003074004430
         C           -0.563521038230    -1.115140934764     2.581409029717    12.000000000000
         C           -2.779090038230    -1.688063934764     2.656864029717    12.000000000000
         C           -2.645161038230     1.865259065236    -0.039846970283    12.000000000000
         C           -1.533331038230     0.608806065236    -1.754899970283    12.000000000000
         C           -3.588655038230     2.303905065236    -0.963489970283    12.000000000000
         C           -2.476541038230     1.043861065236    -2.682064970283    12.000000000000
         C           -3.498711038230     1.906232065236    -2.294977970283    12.000000000000
         C            2.950046961770    -0.194717934764     0.420118029717    12.000000000000
         C            1.726453961770     0.170792065236    -1.602162970283    12.000000000000
         C            4.064699961770    -0.570009934764    -0.310410970283    12.000000000000
         C            2.850178961770    -0.193485934764    -2.340437970283    12.000000000000
         C            4.036707961770    -0.581769934764    -1.712800970283    12.000000000000
         H           -1.286192038230    -2.486861934764     3.992606029717     1.007825032230
         O            0.648040961770    -1.040175934764     2.906062029717    15.994914619570
         H           -2.726652038230     2.167153065236     0.995702029717     1.007825032230
         H           -0.816996038230    -0.139381934764    -2.051554970283     1.007825032230
         H           -4.398840038230     2.942442065236    -0.638804970283     1.007825032230
         H           -2.426636038230     0.682930065236    -3.700249970283     1.007825032230
         H           -4.230879038230     2.242334065236    -3.016136970283     1.007825032230
         H            2.997788961770    -0.204984934764     1.501237029717     1.007825032230
         H            0.876705961770     0.555215065236    -2.134678970283     1.007825032230
         H            4.969011961770    -0.859776934764     0.209222029717     1.007825032230
         H            2.807845961770    -0.142841934764    -3.421618970283     1.007825032230
         N            5.145806961770    -0.999312934764    -2.444746970283    14.003074004430
         H           -3.507423038230    -0.456014934764     1.031944029717     1.007825032230
         H           -3.628937038230    -2.237769934764     3.019470029717     1.007825032230
         H            6.063261961770    -0.864649934764    -2.064435970283     1.007825032230
         H            5.084902961770    -1.017567934764    -3.444929970283     1.007825032230

  Charge       = 0
  Multiplicity = 1
  Basis Set: 6-311+G*
    Blend: 6-311+G*
  Basis Set: (6-311+G* AUX)
    Blend: HEAVY-AUG-CC-PVTZ-JKFIT

    Orbital Energies [Eh]
    ---------------------

    Doubly Occupied:

       1A    -19.214374     2A    -14.471044     3A    -14.449553
       4A    -14.432941     5A    -10.388776     6A    -10.362349
       7A    -10.326703     8A    -10.324921     9A    -10.323796
      10A    -10.313951    11A    -10.300618    12A    -10.300361
      13A    -10.299993    14A    -10.299263    15A    -10.298949
      16A    -10.295981    17A    -10.283331    18A    -10.281419
      19A    -10.281146    20A    -10.279573    21A    -10.278731
      22A     -1.132594    23A     -1.057064    24A     -1.048781
      25A     -1.018226    26A     -0.975716    27A     -0.940516
      28A     -0.904953    29A     -0.871246    30A     -0.860134
      31A     -0.845110    32A     -0.837888    33A     -0.808228
      34A     -0.765533    35A     -0.722635    36A     -0.713421
      37A     -0.709036    38A     -0.694980    39A     -0.682363
      40A     -0.655914    41A     -0.633220    42A     -0.614104
      43A     -0.606505    44A     -0.600099    45A     -0.595134
      46A     -0.571977    47A     -0.553991    48A     -0.551982
      49A     -0.532748    50A     -0.528706    51A     -0.522132
      52A     -0.519285    53A     -0.517222    54A     -0.504704
      55A     -0.503777    56A     -0.500555    57A     -0.492414
      58A     -0.481192    59A     -0.470146    60A     -0.461450
      61A     -0.448372    62A     -0.438706    63A     -0.432962
      64A     -0.420502    65A     -0.413222    66A     -0.385979
      67A     -0.348169    68A     -0.340950    69A     -0.340752
      70A     -0.333186    71A     -0.326093    72A     -0.285226
      73A     -0.247457

  @DF-RKS Final Energy:  -896.18820811514865

   => Energetics <=

    Nuclear Repulsion Energy =           1533.4459119852667754
    One-Electron Energy =               -4260.4813778398629438
    Two-Electron Energy =                1918.6237752435370112
    DFT Exchange-Correlation Energy =     -87.7510352881930373
    Empirical Dispersion Energy =          -0.0254822158963341
    VV10 Nonlocal Energy =                  0.0000000000000000
    Total Energy =                       -896.1882081151485409

  Dipole Moment: [D]
     X:    -1.7795      Y:    -0.3629      Z:    -1.8992     Total:     2.6278

*** Psi4 exiting successfully. Buy a developer a beer!
