                               Psi4 1.3.2 release

  ==> Input File <==

--------------------------------------------------------------------------
molecule {
0 1
CL 0.552657501958 0.050918530793 -0.021174480298
C -1.215710015703 -0.112024169971 0.046574293798
H -1.547586702148 -0.709545699757 -0.800067328339
H -1.489498057179 -0.602069259060 0.978725958994
H -1.663412280968 0.878729737193 0.001487476826
}
memory 15GB
set_num_threads(4)
psi4_io.set_default_path("/scratch/bdw2292/Psi4-CH3Cl")
set maxiter 500
set freeze_core True
set PROPERTIES_ORIGIN ["COM"]
set cubeprop_tasks ['esp']
E, wfn = properties('mp2/aug-cc-pVTZ',properties=['dipole'],return_wfn=True)
cubeprop(wfn)
fchk(wfn, "CH3Cl-esp.fchk")
oeprop(wfn,"GRID_ESP","WIBERG_LOWDIN_INDICES","MULLIKEN_CHARGES")
clean()
--------------------------------------------------------------------------

    Molecular point group: c1
  Charge       = 0
  Multiplicity = 1
  Basis Set: AUG-CC-PVTZ
    Blend: AUG-CC-PVTZ
  Basis Set: (AUG-CC-PVTZ AUX)
    Blend: AUG-CC-PVTZ-JKFIT

    Orbital Energies [Eh]
    ---------------------

    Doubly Occupied:

       1A   -104.827006     2A    -11.290890     3A    -10.551347
       4A     -8.018265     5A     -8.016383     6A     -8.016383
       7A     -1.129322     8A     -0.914434     9A     -0.616816
      10A     -0.616751    11A     -0.547891    12A     -0.435788
      13A     -0.435779

  @DF-RHF Final Energy:  -499.14863748866128

   => Energetics <=

    Nuclear Repulsion Energy =             51.4246155236562359
    One-Electron Energy =                -790.3123948878203464
    Two-Electron Energy =                 239.7391418755028099
    Total Energy =                       -499.1486374886612793
  Basis Set: (AUG-CC-PVTZ AUX)
    Blend: AUG-CC-PVTZ-RI
    Molecular point group: c1

    Geometry (in Angstrom), charge = 0, multiplicity = 1:

       Center              X                  Y                   Z               Mass
    ------------   -----------------  -----------------  -----------------  -----------------
         CL           0.552657501958     0.050918530793    -0.021174480298    34.968852682000
         C           -1.215710015703    -0.112024169971     0.046574293798    12.000000000000
         H           -1.547586702148    -0.709545699757    -0.800067328339     1.007825032230
         H           -1.489498057179    -0.602069259060     0.978725958994     1.007825032230
         H           -1.663412280968     0.878729737193     0.001487476826     1.007825032230

  Basis Set: AUG-CC-PVTZ
    Blend: AUG-CC-PVTZ
  Basis Set: (AUG-CC-PVTZ AUX)
    Blend: AUG-CC-PVTZ-JKFIT
	 Reference Energy          =    -499.1486374886612793 [Eh]
	 Singles Energy            =      -0.0000000000000000 [Eh]
	 Same-Spin Energy          =      -0.0856250945803254 [Eh]
	 Opposite-Spin Energy      =      -0.2948225836304624 [Eh]
	 Correlation Energy        =      -0.3804476782107878 [Eh]
	 Total Energy              =    -499.5290851668720506 [Eh]

	 ================> DF-SCS-MP2 Energies <==================
	-----------------------------------------------------------
	 SCS Same-Spin Scale       =       0.3333333333333333 [-]
	 SCS Opposite-Spin Scale   =       1.2000000000000000 [-]
	 SCS Same-Spin Energy      =      -0.0285416981934418 [Eh]
	 SCS Opposite-Spin Energy  =      -0.3537871003565549 [Eh]
	 SCS Correlation Energy    =      -0.3823287985499967 [Eh]
	 SCS Total Energy          =    -499.5309662872112995 [Eh]
	-----------------------------------------------------------

  Dipole Moment: [D]
     X:    -1.8988      Y:    -0.1749      Z:     0.0728     Total:     1.9082

  Basis Set: AUG-CC-PVTZ
    Blend: AUG-CC-PVTZ

  Mulliken Charges: (a.u.)
   Center  Symbol    Alpha    Beta     Spin     Total
       1    CL     8.59545  8.59545  0.00000 -0.19089
       2     C     3.38019  3.38019  0.00000 -0.76037
       3     H     0.34144  0.34144  0.00000  0.31711
       4     H     0.34145  0.34145  0.00000  0.31709
       5     H     0.34147  0.34147  0.00000  0.31706

   Total alpha = 13.00000, Total beta = 13.00000, Total charge = -0.00000

*** Psi4 exiting successfully. Buy a developer a beer!
