                               Psi4 1.3.2 release

  ==> Input File <==

--------------------------------------------------------------------------
molecule {
0 1
CL 0.552657501958 0.050918530793 -0.021174480298
C -1.215710015703 -0.112024169971 0.046574293798
H -1.547586702148 -0.709545699757 -0.800067328339
H -1.489498057179 -0.602069259060 0.978725958994
H -1.663412280968 0.878729737193 0.001487476826
}
memory 15GB
set_num_threads(4)
psi4_io.set_default_path("/scratch/bdw2292/Psi4-CH3Cl")
set freeze_core True
set PROPERTIES_ORIGIN ["COM"]
set cubeprop_tasks ['esp']
E, wfn = properties('mp2/6-311G**',properties=['dipole'],return_wfn=True)
cubeprop(wfn)
fchk(wfn, "CH3Cl-dma.fchk")
clean()
--------------------------------------------------------------------------

    Molecular point group: c1
  Charge       = 0
  Multiplicity = 1
  Basis Set: 6-311G**
    Blend: 6-311G**
  Basis Set: (6-311G** AUX)
    Blend: CC-PVTZ-JKFIT

    Orbital Energies [Eh]
    ---------------------

    Doubly Occupied:

       1A   -104.826164     2A    -11.294279     3A    -10.552577
       4A     -8.020845     5A     -8.017921     6A     -8.017921
       7A     -1.132945     8A     -0.917633     9A     -0.620152
      10A     -0.620087    11A     -0.550377    12A     -0.437203
      13A     -0.437194

  @DF-RHF Final Energy:  -499.13047440571347

   => Energetics <=

    Nuclear Repulsion Energy =             51.4246155236562359
    One-Electron Energy =                -790.2195824177313170
    Two-Electron Energy =                 239.6644924883615886
    Total Energy =                       -499.1304744057134712
  Basis Set: (6-311G** AUX)
    Blend: CC-PVTZ-RI
    Molecular point group: c1

    Geometry (in Angstrom), charge = 0, multiplicity = 1:

       Center              X                  Y                   Z               Mass
    ------------   -----------------  -----------------  -----------------  -----------------
         CL           0.552657501958     0.050918530793    -0.021174480298    34.968852682000
         C           -1.215710015703    -0.112024169971     0.046574293798    12.000000000000
         H           -1.547586702148    -0.709545699757    -0.800067328339     1.007825032230
         H           -1.489498057179    -0.602069259060     0.978725958994     1.007825032230
         H           -1.663412280968     0.878729737193     0.001487476826     1.007825032230

  Basis Set: 6-311G**
    Blend: 6-311G**
  Basis Set: (6-311G** AUX)
    Blend: CC-PVTZ-JKFIT
	 Reference Energy          =    -499.1304744057134712 [Eh]
	 Singles Energy            =      -0.0000000000000000 [Eh]
	 Same-Spin Energy          =      -0.0687126863571380 [Eh]
	 Opposite-Spin Energy      =      -0.2270411662388913 [Eh]
	 Correlation Energy        =      -0.2957538525960292 [Eh]
	 Total Energy              =    -499.4262282583094930 [Eh]

	 ================> DF-SCS-MP2 Energies <==================
	-----------------------------------------------------------
	 SCS Same-Spin Scale       =       0.3333333333333333 [-]
	 SCS Opposite-Spin Scale   =       1.2000000000000000 [-]
	 SCS Same-Spin Energy      =      -0.0229042287857126 [Eh]
	 SCS Opposite-Spin Energy  =      -0.2724493994866695 [Eh]
	 SCS Correlation Energy    =      -0.2953536282723822 [Eh]
	 SCS Total Energy          =    -499.4258280339858516 [Eh]
	-----------------------------------------------------------

  Dipole Moment: [D]
     X:    -1.9524      Y:    -0.1798      Z:     0.0748     Total:     1.9620

  Basis Set: 6-311G**
    Blend: 6-311G**
*** Psi4 exiting successfully. Buy a developer a beer!
