                               Psi4 1.3.2 release

  ==> Input File <==

--------------------------------------------------------------------------
molecule {
0 1
Cl    1.654600    0.143200   -0.074400
 C   -0.122000    0.001700    0.018000
 H   -0.475400   -0.621700   -0.842400
 H   -0.438100   -0.524100    0.944600
 H   -0.619100    1.001000   -0.045800
}
set {
  geom_maxiter 400
  g_convergence GAU
  dynamic_level 1
}
memory 15GB
set_num_threads(4)
psi4_io.set_default_path("/scratch/bdw2292/Psi4-CH3Cl")
for _ in range(1):
  try:
    set opt_coordinates both
    optimize('mp2/6-31G*')
    break
  except OptimizationConvergenceError:
    break
  else:
    try:
      set opt_coordinates cartesian
      optimize('mp2/6-31G*')
      break
    except OptimizationConvergenceError:
      pass
clean()
--------------------------------------------------------------------------

    Molecular point group: c1
  Charge       = 0
  Multiplicity = 1
  Basis Set: 6-31G*
    Blend: 6-31G*
  Basis Set: (6-31G* AUX)
    Blend: CC-PVDZ-JKFIT
  @DF-RHF Final Energy:  -499.08933319958857
    Total Energy =                       -499.0893331995885660
  Basis Set: (6-31G* AUX)
    Blend: CC-PVDZ-RI
    Molecular point group: c1
  Basis Set: 6-31G*
    Blend: 6-31G*
  Basis Set: (6-31G* AUX)
    Blend: CC-PVDZ-JKFIT
  Basis Set: (6-31G* AUX)
    Blend: CC-PVDZ-JKFIT
	 Reference Energy          =    -499.0893331995885660 [Eh]
	 Singles Energy            =      -0.0000000000000000 [Eh]
	 Same-Spin Energy          =      -0.0665558169869554 [Eh]
	 Opposite-Spin Energy      =      -0.2108790733024271 [Eh]
	 Correlation Energy        =      -0.2774348902893825 [Eh]
	 Total Energy              =    -499.3667680898779508 [Eh]
	 SCS Total Energy          =    -499.3645733598804668 [Eh]
  @DF-RHF Final Energy:  -499.09278845798571
    Total Energy =                       -499.0927884579857050
  @DF-RHF Final Energy:  -499.09282691353582
    Total Energy =                       -499.0928269135358164
  Charge       = 0
  Multiplicity = 1
  Basis Set: 6-31G*
    Blend: 6-31G*
  Basis Set: (6-31G* AUX)
    Blend: CC-PVDZ-JKFIT

    Orbital Energies [Eh]
    ---------------------

    Doubly Occupied:

       1A   -104.812433     2A    -11.292014     3A    -10.546400
       4A     -8.015839     5A     -8.012425     6A     -8.012425
       7A     -1.130670     8A     -0.915851     9A     -0.619300
      10A     -0.619234    11A     -0.548307    12A     -0.434657
      13A     -0.434648

  @DF-RHF Final Energy:  -499.09284740612526

   => Energetics <=

    Nuclear Repulsion Energy =             51.4246155236566125
    One-Electron Energy =                -790.2465181189843406
    Two-Electron Energy =                 239.7290551892024837
    Total Energy =                       -499.0928474061252587

  Dipole Moment: [D]
     X:    -2.1922      Y:    -0.2019      Z:     0.0840     Total:     2.2031

  Basis Set: (6-31G* AUX)
    Blend: CC-PVDZ-RI
    Molecular point group: c1
  Basis Set: 6-31G*
    Blend: 6-31G*
  Basis Set: (6-31G* AUX)
    Blend: CC-PVDZ-JKFIT
  Basis Set: (6-31G* AUX)
    Blend: CC-PVDZ-JKFIT
	 Reference Energy          =    -499.0928474061252587 [Eh]
	 Singles Energy            =      -0.0000000000000000 [Eh]
	 Same-Spin Energy          =      -0.0664777437952739 [Eh]
	 Opposite-Spin Energy      =      -0.2096158205222984 [Eh]
	 Correlation Energy        =      -0.2760935643175723 [Eh]
	 Total Energy              =    -499.3689409704428499 [Eh]

	 ================> DF-SCS-MP2 Energies <==================
	-----------------------------------------------------------
	 SCS Same-Spin Scale       =       0.3333333333333333 [-]
	 SCS Opposite-Spin Scale   =       1.2000000000000000 [-]
	 SCS Same-Spin Energy      =      -0.0221592479317580 [Eh]
	 SCS Opposite-Spin Energy  =      -0.2515389846267581 [Eh]
	 SCS Correlation Energy    =      -0.2736982325585161 [Eh]
	 SCS Total Energy          =    -499.3665456386837604 [Eh]
	-----------------------------------------------------------

  -Total Gradient:
     Atom            X                  Y                   Z
    ------   -----------------  -----------------  -----------------
       1       -0.000089510242    -0.000012997061    -0.000002730324
       2        0.000100933580    -0.000033683193    -0.000016171760
       3        0.000014620725     0.000004680246    -0.000022656278
       4       -0.000006044124     0.000018203990     0.000027993523
       5       -0.000019999917     0.000023796016     0.000013564839

  **** Optimization is complete! (in 4 steps) ****
    Final optimized geometry and variables:
    Molecular point group: c1

    Geometry (in Angstrom), charge = 0, multiplicity = 1:

    CL           0.552657501958     0.050918530793    -0.021174480298
    C           -1.215710015703    -0.112024169971     0.046574293798
    H           -1.547586702148    -0.709545699757    -0.800067328339
    H           -1.489498057179    -0.602069259060     0.978725958994
    H           -1.663412280968     0.878729737193     0.001487476826

*** Psi4 exiting successfully. Buy a developer a beer!
