                               Psi4 1.3.2 release

  ==> Input File <==

--------------------------------------------------------------------------
molecule {
0 1
O         -4.29600        0.70990        0.04690
C         -4.15550       -0.51950       -0.13450
N         -2.88880       -1.10540       -0.07100
C         -1.67290       -0.44230        0.21710
C         -2.79090       -2.55700       -0.33120
C         -0.45250       -0.99130       -0.17810
C          0.81870        0.79670        0.73960
C          0.76840       -0.39010        0.07510
C         -0.38080        1.37730        1.15150
C         -1.58120        0.75890        0.88810
C         -5.39960       -1.30330       -0.41360
H         -2.17240       -3.04390        0.42450
H         -2.33400       -2.65370       -1.32860
H         -3.80720       -3.03690       -0.27370
H         -0.49600       -1.93920       -0.70890
H          1.69470       -0.88110       -0.25600
H         -0.33620        2.31250        1.67300
H         -2.48410        1.26410        1.24600
H         -5.54410       -2.13730        0.30810
H         -5.24070       -1.74240       -1.43810
N         -6.53810       -0.48150       -0.39510
H          1.72230        1.25580        0.93390
H         -6.66320       -0.09490        0.54050
H         -7.35880       -1.03180       -0.64810
}
memory 100GB
set_num_threads(12)
psi4_io.set_default_path("/scratch/bdw2292/Psi4-farH_in17")
set maxiter 500
set freeze_core True
set PROPERTIES_ORIGIN ["COM"]
set cubeprop_tasks ['esp']
E, wfn = properties('hf/MINIX',properties=['dipole'],return_wfn=True)
cubeprop(wfn)
fchk(wfn, "farH_in17-esp_frag.fchk")
oeprop(wfn,"WIBERG_LOWDIN_INDICES","MULLIKEN_CHARGES")
clean()
--------------------------------------------------------------------------

    Molecular point group: c1

    Geometry (in Angstrom), charge = 0, multiplicity = 1:

       Center              X                  Y                   Z               Mass
    ------------   -----------------  -----------------  -----------------  -----------------
         O           -1.784323808473     1.087330637414    -0.068079926658    15.994914619570
         C           -1.643823808473    -0.142069362586    -0.249479926658    12.000000000000
         N           -0.377123808473    -0.727969362586    -0.185979926658    14.003074004430
         C            0.838776191527    -0.064869362586     0.102120073342    12.000000000000
         C           -0.279223808473    -2.179569362586    -0.446179926658    12.000000000000
         C            2.059176191527    -0.613869362586    -0.293079926658    12.000000000000
         C            3.330376191527     1.174130637414     0.624620073342    12.000000000000
         C            3.280076191527    -0.012669362586    -0.039879926658    12.000000000000
         C            2.130876191527     1.754730637414     1.036520073342    12.000000000000
         C            0.930476191527     1.136330637414     0.773120073342    12.000000000000
         C           -2.887923808473    -0.925869362586    -0.528579926658    12.000000000000
         H            0.339276191527    -2.666469362586     0.309520073342     1.007825032230
         H            0.177676191527    -2.276269362586    -1.443579926658     1.007825032230
         H           -1.295523808473    -2.659469362586    -0.388679926658     1.007825032230
         H            2.015676191527    -1.561769362586    -0.823879926658     1.007825032230
         H            4.206376191527    -0.503669362586    -0.370979926658     1.007825032230
         H            2.175476191527     2.689930637414     1.558020073342     1.007825032230
         H            0.027576191527     1.641530637414     1.131020073342     1.007825032230
         H           -3.032423808473    -1.759869362586     0.193120073342     1.007825032230
         H           -2.729023808473    -1.364969362586    -1.553079926658     1.007825032230
         N           -4.026423808473    -0.104069362586    -0.510079926658    14.003074004430
         H            4.233976191527     1.633230637414     0.818920073342     1.007825032230
         H           -4.151523808473     0.282530637414     0.425520073342     1.007825032230
         H           -4.847123808473    -0.654369362586    -0.763079926658     1.007825032230

  Charge       = 0
  Multiplicity = 1
  Basis Set: MINIX
    Blend: MINIX
  Basis Set: (MINIX AUX)
    Blend: DEF2-SVP-JKFIT

    Orbital Energies [Eh]
    ---------------------

    Doubly Occupied:

       1A    -20.281841     2A    -15.457099     3A    -15.372941
       4A    -11.313546     5A    -11.237212     6A    -11.223629
       7A    -11.214108     8A    -11.176720     9A    -11.172083
      10A    -11.167300    11A    -11.166375    12A    -11.164787
      13A     -1.365738    14A     -1.248372    15A     -1.193697
      16A     -1.157308    17A     -1.032892    18A     -1.018999
      19A     -0.961632    20A     -0.940022    21A     -0.837964
      22A     -0.823032    23A     -0.752968    24A     -0.707944
      25A     -0.695094    26A     -0.674888    27A     -0.653069
      28A     -0.633672    29A     -0.621643    30A     -0.613323
      31A     -0.585943    32A     -0.583541    33A     -0.571010
      34A     -0.551580    35A     -0.537343    36A     -0.526695
      37A     -0.503295    38A     -0.495728    39A     -0.477531
      40A     -0.404176    41A     -0.391218    42A     -0.373733
      43A     -0.348246    44A     -0.305358

  @DF-RHF Final Energy:  -527.86739495430231

   => Energetics <=

    Nuclear Repulsion Energy =            681.9345974931394494
    One-Electron Energy =               -2070.5334367017903787
    Two-Electron Energy =                 860.7314442543487303
    Total Energy =                       -527.8673949543023127

  Dipole Moment: [D]
     X:    -0.4230      Y:    -4.6756      Z:     0.5851     Total:     4.7311

  Basis Set: MINIX
    Blend: MINIX

  Mulliken Charges: (a.u.)
   Center  Symbol    Alpha    Beta     Spin     Total
       1     O     4.20397  4.20397  0.00000 -0.40794
       2     C     2.80863  2.80863  0.00000  0.38273
       3     N     3.65917  3.65917  0.00000 -0.31835
       4     C     2.94902  2.94902  0.00000  0.10197
       5     C     3.11975  3.11975  0.00000 -0.23950
       6     C     3.07367  3.07367  0.00000 -0.14733
       7     C     3.07927  3.07927  0.00000 -0.15855
       8     C     3.06871  3.06871  0.00000 -0.13742
       9     C     3.06658  3.06658  0.00000 -0.13316
      10     C     3.07054  3.07054  0.00000 -0.14107
      11     C     3.07658  3.07658  0.00000 -0.15317
      12     H     0.42945  0.42945  0.00000  0.14109
      13     H     0.43194  0.43194  0.00000  0.13613
      14     H     0.42988  0.42988  0.00000  0.14024
      15     H     0.43448  0.43448  0.00000  0.13104
      16     H     0.42913  0.42913  0.00000  0.14175
      17     H     0.42861  0.42861  0.00000  0.14279
      18     H     0.41558  0.41558  0.00000  0.16885
      19     H     0.43983  0.43983  0.00000  0.12033
      20     H     0.42622  0.42622  0.00000  0.14756
      21     N     3.74412  3.74412  0.00000 -0.48824
      22     H     0.43091  0.43091  0.00000  0.13817
      23     H     0.38923  0.38923  0.00000  0.22155
      24     H     0.39473  0.39473  0.00000  0.21053

   Total alpha = 44.00000, Total beta = 44.00000, Total charge =  0.00000

*** Psi4 exiting successfully. Buy a developer a beer!
