                               Psi4 1.3.2 release

  ==> Input File <==

--------------------------------------------------------------------------
molecule {
0 1
 H   -0.857800   -0.502100   -0.085000
 N    0.006700   -0.006000    0.259300
 H    0.888800   -0.464000   -0.089300
 H   -0.037700    0.972100   -0.084900
}
set {
  geom_maxiter 400
  g_convergence GAU
  dynamic_level 1
}
memory 8.333333333333334GB
set_num_threads(1)
psi4_io.set_default_path("/scratch/bdw2292/Psi4-43_Index_0-farH_in17")
for _ in range(1):
  try:
    set opt_coordinates both
    optimize('mp2/6-31G*')
    break
  except OptimizationConvergenceError:
    break
  else:
    try:
      set opt_coordinates cartesian
      optimize('mp2/6-31G*')
      break
    except OptimizationConvergenceError:
      pass
clean()
--------------------------------------------------------------------------

    Molecular point group: c1
  Charge       = 0
  Multiplicity = 1
  Basis Set: 6-31G*
    Blend: 6-31G*
  Basis Set: (6-31G* AUX)
    Blend: CC-PVDZ-JKFIT
  @DF-RHF Final Energy:   -56.17760969377755
    Total Energy =                        -56.1776096937775407
  Basis Set: (6-31G* AUX)
    Blend: CC-PVDZ-RI
    Molecular point group: c1
  Basis Set: 6-31G*
    Blend: 6-31G*
  Basis Set: (6-31G* AUX)
    Blend: CC-PVDZ-JKFIT
  Basis Set: (6-31G* AUX)
    Blend: CC-PVDZ-JKFIT
	 Reference Energy          =     -56.1776096937775478 [Eh]
	 Singles Energy            =      -0.0000000000000000 [Eh]
	 Same-Spin Energy          =      -0.0407081492638930 [Eh]
	 Opposite-Spin Energy      =      -0.1349438769135242 [Eh]
	 Correlation Energy        =      -0.1756520261774172 [Eh]
	 Total Energy              =     -56.3532617199549648 [Eh]
	 SCS Total Energy          =     -56.3531117291617392 [Eh]
  @DF-RHF Final Energy:   -56.18394121239042
    Total Energy =                        -56.1839412123904154
  @DF-RHF Final Energy:   -56.18375708714657
    Total Energy =                        -56.1837570871465743
  Charge       = 0
  Multiplicity = 1
  Basis Set: 6-31G*
    Blend: 6-31G*
  Basis Set: (6-31G* AUX)
    Blend: CC-PVDZ-JKFIT

    Orbital Energies [Eh]
    ---------------------

    Doubly Occupied:

       1A    -15.540367     2A     -1.134697     3A     -0.620675
       4A     -0.620649     5A     -0.422181

  @DF-RHF Final Energy:   -56.18382019812059

   => Energetics <=

    Nuclear Repulsion Energy =             11.9038321945160934
    One-Electron Energy =                 -99.4981648905161506
    Two-Electron Energy =                  31.4105124978794557
    Total Energy =                        -56.1838201981205998

  Dipole Moment: [D]
     X:    -0.0082      Y:     0.0061      Z:    -1.9717     Total:     1.9717

  Basis Set: (6-31G* AUX)
    Blend: CC-PVDZ-RI
    Molecular point group: c1
  Basis Set: 6-31G*
    Blend: 6-31G*
  Basis Set: (6-31G* AUX)
    Blend: CC-PVDZ-JKFIT
  Basis Set: (6-31G* AUX)
    Blend: CC-PVDZ-JKFIT
	 Reference Energy          =     -56.1838201981205927 [Eh]
	 Singles Energy            =      -0.0000000000000000 [Eh]
	 Same-Spin Energy          =      -0.0403727068002802 [Eh]
	 Opposite-Spin Energy      =      -0.1331221350775460 [Eh]
	 Correlation Energy        =      -0.1734948418778262 [Eh]
	 Total Energy              =     -56.3573150399984186 [Eh]

	 ================> DF-SCS-MP2 Energies <==================
	-----------------------------------------------------------
	 SCS Same-Spin Scale       =       0.3333333333333333 [-]
	 SCS Opposite-Spin Scale   =       1.2000000000000000 [-]
	 SCS Same-Spin Energy      =      -0.0134575689334267 [Eh]
	 SCS Opposite-Spin Energy  =      -0.1597465620930552 [Eh]
	 SCS Correlation Energy    =      -0.1732041310264819 [Eh]
	 SCS Total Energy          =     -56.3570243291470732 [Eh]
	-----------------------------------------------------------

  -Total Gradient:
     Atom            X                  Y                   Z
    ------   -----------------  -----------------  -----------------
       1        0.000019545477     0.000000048532    -0.000052450603
       2       -0.000042906693    -0.000010785428     0.000192461240
       3        0.000020770218    -0.000018811605    -0.000073525930
       4        0.000002590998     0.000029548501    -0.000066484706

  **** Optimization is complete! (in 4 steps) ****
    Final optimized geometry and variables:
    Molecular point group: c1

    Geometry (in Angstrom), charge = 0, multiplicity = 1:

    H           -0.801015716100    -0.492273541475    -0.317931828638
    N            0.000283338594    -0.000212192736     0.069038515058
    H            0.825677269612    -0.445001887935    -0.324602580948
    H           -0.028598359184     0.940223709608    -0.316710900465

*** Psi4 exiting successfully. Buy a developer a beer!
