                               Psi4 1.3.2 release

  ==> Input File <==

--------------------------------------------------------------------------
molecule {
0 1
H -0.801015716100 -0.492273541475 -0.317931828638
N 0.000283338594 -0.000212192736 0.069038515058
H 0.825677269612 -0.445001887935 -0.324602580948
H -0.028598359184 0.940223709608 -0.316710900465
}
memory 8.333333333333334GB
set_num_threads(1)
psi4_io.set_default_path("/scratch/bdw2292/Psi4-43_Index_0-farH_in17")
set maxiter 500
set freeze_core True
set PROPERTIES_ORIGIN ["COM"]
set cubeprop_tasks ['esp']
E, wfn = properties('mp2/aug-cc-pVTZ',properties=['dipole'],return_wfn=True)
cubeprop(wfn)
fchk(wfn, "43_Index_0-esp.fchk")
oeprop(wfn,"GRID_ESP","WIBERG_LOWDIN_INDICES","MULLIKEN_CHARGES")
clean()
--------------------------------------------------------------------------

    Molecular point group: c1
  Charge       = 0
  Multiplicity = 1
  Basis Set: AUG-CC-PVTZ
    Blend: AUG-CC-PVTZ
  Basis Set: (AUG-CC-PVTZ AUX)
    Blend: AUG-CC-PVTZ-JKFIT

    Orbital Energies [Eh]
    ---------------------

    Doubly Occupied:

       1A    -15.543673     2A     -1.140777     3A     -0.626167
       4A     -0.626142     5A     -0.430508

  @DF-RHF Final Energy:   -56.21992907850073

   => Energetics <=

    Nuclear Repulsion Energy =             11.9038321945178431
    One-Electron Energy =                 -99.5129894065949827
    Two-Electron Energy =                  31.3892281335764096
    Total Energy =                        -56.2199290785007264
  Basis Set: (AUG-CC-PVTZ AUX)
    Blend: AUG-CC-PVTZ-RI
    Molecular point group: c1

    Geometry (in Angstrom), charge = 0, multiplicity = 1:

       Center              X                  Y                   Z               Mass
    ------------   -----------------  -----------------  -----------------  -----------------
         H           -0.801015716100    -0.492273541475    -0.317931828638     1.007825032230
         N            0.000283338594    -0.000212192736     0.069038515058    14.003074004430
         H            0.825677269612    -0.445001887935    -0.324602580948     1.007825032230
         H           -0.028598359184     0.940223709608    -0.316710900465     1.007825032230

  Basis Set: AUG-CC-PVTZ
    Blend: AUG-CC-PVTZ
  Basis Set: (AUG-CC-PVTZ AUX)
    Blend: AUG-CC-PVTZ-JKFIT
	 Reference Energy          =     -56.2199290785007264 [Eh]
	 Singles Energy            =      -0.0000000000000000 [Eh]
	 Same-Spin Energy          =      -0.0531832782648492 [Eh]
	 Opposite-Spin Energy      =      -0.1873282091063406 [Eh]
	 Correlation Energy        =      -0.2405114873711898 [Eh]
	 Total Energy              =     -56.4604405658719131 [Eh]

	 ================> DF-SCS-MP2 Energies <==================
	-----------------------------------------------------------
	 SCS Same-Spin Scale       =       0.3333333333333333 [-]
	 SCS Opposite-Spin Scale   =       1.2000000000000000 [-]
	 SCS Same-Spin Energy      =      -0.0177277594216164 [Eh]
	 SCS Opposite-Spin Energy  =      -0.2247938509276087 [Eh]
	 SCS Correlation Energy    =      -0.2425216103492251 [Eh]
	 SCS Total Energy          =     -56.4624506888499482 [Eh]
	-----------------------------------------------------------

  Dipole Moment: [D]
     X:    -0.0064      Y:     0.0048      Z:    -1.5389     Total:     1.5389

  Basis Set: AUG-CC-PVTZ
    Blend: AUG-CC-PVTZ

  Mulliken Charges: (a.u.)
   Center  Symbol    Alpha    Beta     Spin     Total
       1     H     0.39871  0.39871  0.00000  0.20258
       2     N     3.80389  3.80389  0.00000 -0.60779
       3     H     0.39870  0.39870  0.00000  0.20260
       4     H     0.39870  0.39870  0.00000  0.20260

   Total alpha =  5.00000, Total beta =  5.00000, Total charge =  0.00000

*** Psi4 exiting successfully. Buy a developer a beer!
