                               Psi4 1.3.2 release

  ==> Input File <==

--------------------------------------------------------------------------
molecule {
0 1
H -0.801015716100 -0.492273541475 -0.317931828638
N 0.000283338594 -0.000212192736 0.069038515058
H 0.825677269612 -0.445001887935 -0.324602580948
H -0.028598359184 0.940223709608 -0.316710900465
}
memory 8.333333333333334GB
set_num_threads(1)
psi4_io.set_default_path("/scratch/bdw2292/Psi4-43_Index_0-farH_in17")
set freeze_core True
set PROPERTIES_ORIGIN ["COM"]
set cubeprop_tasks ['esp']
E, wfn = properties('mp2/6-311G**',properties=['dipole'],return_wfn=True)
cubeprop(wfn)
fchk(wfn, "43_Index_0-dma.fchk")
clean()
--------------------------------------------------------------------------

    Molecular point group: c1
  Charge       = 0
  Multiplicity = 1
  Basis Set: 6-311G**
    Blend: 6-311G**
  Basis Set: (6-311G** AUX)
    Blend: CC-PVTZ-JKFIT

    Orbital Energies [Eh]
    ---------------------

    Doubly Occupied:

       1A    -15.530549     2A     -1.134004     3A     -0.619629
       4A     -0.619603     5A     -0.424017

  @DF-RHF Final Energy:   -56.20975743704841

   => Energetics <=

    Nuclear Repulsion Energy =             11.9038321945178431
    One-Electron Energy =                 -99.5715748056465770
    Two-Electron Energy =                  31.4579851740803242
    Total Energy =                        -56.2097574370484097
  Basis Set: (6-311G** AUX)
    Blend: CC-PVTZ-RI
    Molecular point group: c1

    Geometry (in Angstrom), charge = 0, multiplicity = 1:

       Center              X                  Y                   Z               Mass
    ------------   -----------------  -----------------  -----------------  -----------------
         H           -0.801015716100    -0.492273541475    -0.317931828638     1.007825032230
         N            0.000283338594    -0.000212192736     0.069038515058    14.003074004430
         H            0.825677269612    -0.445001887935    -0.324602580948     1.007825032230
         H           -0.028598359184     0.940223709608    -0.316710900465     1.007825032230

  Basis Set: 6-311G**
    Blend: 6-311G**
  Basis Set: (6-311G** AUX)
    Blend: CC-PVTZ-JKFIT
	 Reference Energy          =     -56.2097574370484097 [Eh]
	 Singles Energy            =      -0.0000000000000000 [Eh]
	 Same-Spin Energy          =      -0.0453223187652776 [Eh]
	 Opposite-Spin Energy      =      -0.1536511756662243 [Eh]
	 Correlation Energy        =      -0.1989734944315019 [Eh]
	 Total Energy              =     -56.4087309314799086 [Eh]

	 ================> DF-SCS-MP2 Energies <==================
	-----------------------------------------------------------
	 SCS Same-Spin Scale       =       0.3333333333333333 [-]
	 SCS Opposite-Spin Scale   =       1.2000000000000000 [-]
	 SCS Same-Spin Energy      =      -0.0151074395884259 [Eh]
	 SCS Opposite-Spin Energy  =      -0.1843814107994691 [Eh]
	 SCS Correlation Energy    =      -0.1994888503878950 [Eh]
	 SCS Total Energy          =     -56.4092462874363036 [Eh]
	-----------------------------------------------------------

  Dipole Moment: [D]
     X:    -0.0072      Y:     0.0053      Z:    -1.7344     Total:     1.7344

  Basis Set: 6-311G**
    Blend: 6-311G**
*** Psi4 exiting successfully. Buy a developer a beer!
