                               Psi4 1.3.2 release

  ==> Input File <==

--------------------------------------------------------------------------
molecule {
0 1
H          2.04670        2.35900        1.59500
N          2.01500        1.48570        1.02620
H          1.42100        1.63280        0.21010
H          1.63500        0.72590        1.59070
}
memory 100GB
set_num_threads(12)
psi4_io.set_default_path("/scratch/bdw2292/Psi4-farH_in17")
set maxiter 500
set freeze_core True
set PROPERTIES_ORIGIN ["COM"]
set cubeprop_tasks ['esp']
E, wfn = properties('hf/MINIX',properties=['dipole'],return_wfn=True)
cubeprop(wfn)
fchk(wfn, "farH_in17-esp_frag.fchk")
oeprop(wfn,"WIBERG_LOWDIN_INDICES","MULLIKEN_CHARGES")
clean()
--------------------------------------------------------------------------

    Molecular point group: c1

    Geometry (in Angstrom), charge = 0, multiplicity = 1:

       Center              X                  Y                   Z               Mass
    ------------   -----------------  -----------------  -----------------  -----------------
         H            0.087476042593     0.857874724929     0.550024492507     1.007825032230
         N            0.055776042593    -0.015425275071    -0.018775507493    14.003074004430
         H           -0.538223957407     0.131674724929    -0.834875507493     1.007825032230
         H           -0.324223957407    -0.775225275071     0.545724492507     1.007825032230

  Charge       = 0
  Multiplicity = 1
  Basis Set: MINIX
    Blend: MINIX
  Basis Set: (MINIX AUX)
    Blend: DEF2-SVP-JKFIT

    Orbital Energies [Eh]
    ---------------------

    Doubly Occupied:

       1A    -15.339497     2A     -1.097464     3A     -0.595491
       4A     -0.589581     5A     -0.388321

  @DF-RHF Final Energy:   -55.79740891148855

   => Energetics <=

    Nuclear Repulsion Energy =             11.7618187674400350
    One-Electron Energy =                 -99.0977458605107842
    Two-Electron Energy =                  31.5385181815821944
    Total Energy =                        -55.7974089114885601

  Dipole Moment: [D]
     X:    -1.6117      Y:     0.4257      Z:     0.5294     Total:     1.7490

  Basis Set: MINIX
    Blend: MINIX

  Mulliken Charges: (a.u.)
   Center  Symbol    Alpha    Beta     Spin     Total
       1     H     0.40211  0.40211  0.00000  0.19579
       2     N     3.79520  3.79520  0.00000 -0.59039
       3     H     0.40135  0.40135  0.00000  0.19730
       4     H     0.40135  0.40135  0.00000  0.19730

   Total alpha =  5.00000, Total beta =  5.00000, Total charge = -0.00000

*** Psi4 exiting successfully. Buy a developer a beer!
