                               Psi4 1.3.2 release

  ==> Input File <==

--------------------------------------------------------------------------
molecule {
1 1
 N    0.018400   -0.016900   -0.399700
 C   -0.002500    1.350800    0.086000
 C   -1.182300   -0.656600    0.159300
 C    1.216700   -0.722800   -0.046500
 H   -0.081800   -0.002900   -1.426700
 H   -1.052400    1.714900   -0.081500
 H    0.673000    2.019200   -0.453400
 H   -1.274700   -1.704800   -0.162100
 H   -2.033000   -0.019300   -0.202700
 H    2.047100   -0.035200    0.256300
 H    1.078800   -1.462200    0.763000
 H    1.616200   -1.283300   -0.931200
 H    0.135500    1.340800    1.183100
 H   -1.159200   -0.521700    1.255800
}
set {
  geom_maxiter 400
  g_convergence GAU
  dynamic_level 1
}
set optking {
  frozen_dihedral = ("
    3 1 2 6
, 2 1 3 8
, 2 1 4 10
  ")
}
memory 8.333333333333334GB
set_num_threads(1)
psi4_io.set_default_path("/scratch/bdw2292/Psi4-40_Index_0-farH_in17")
for _ in range(1):
  try:
    set opt_coordinates both
    optimize('mp2/6-31G*')
    break
  except OptimizationConvergenceError:
    break
  else:
    try:
      set opt_coordinates cartesian
      optimize('mp2/6-31G*')
      break
    except OptimizationConvergenceError:
      pass
clean()
--------------------------------------------------------------------------

    Molecular point group: c1
  Charge       = 1
  Multiplicity = 1
  Basis Set: 6-31G*
    Blend: 6-31G*
  Basis Set: (6-31G* AUX)
    Blend: CC-PVDZ-JKFIT
  @DF-RHF Final Energy:  -173.62586417662055
    Total Energy =                       -173.6258641766205528
  Basis Set: (6-31G* AUX)
    Blend: CC-PVDZ-RI
    Molecular point group: c1
  Basis Set: 6-31G*
    Blend: 6-31G*
  Basis Set: (6-31G* AUX)
    Blend: CC-PVDZ-JKFIT
  Basis Set: (6-31G* AUX)
    Blend: CC-PVDZ-JKFIT
	 Reference Energy          =    -173.6258641766205528 [Eh]
	 Singles Energy            =      -0.0000000000000000 [Eh]
	 Same-Spin Energy          =      -0.1338399214003761 [Eh]
	 Opposite-Spin Energy      =      -0.4425749247173160 [Eh]
	 Correlation Energy        =      -0.5764148461176920 [Eh]
	 Total Energy              =    -174.2022790227382529 [Eh]
	 SCS Total Energy          =    -174.2015673934147912 [Eh]
  @DF-RHF Final Energy:  -172.80558176855803
    Total Energy =                       -172.8055817685580280
  @DF-RHF Final Energy:  -172.98174314018647
    Total Energy =                       -172.9817431401864667
  @DF-RHF Final Energy:  -173.29559783747663
    Total Energy =                       -173.2955978374766346
  @DF-RHF Final Energy:  -173.52241662195362
    Total Energy =                       -173.5224166219536244
  @DF-RHF Final Energy:  -173.61909775208770
    Total Energy =                       -173.6190977520876970
  @DF-RHF Final Energy:  -173.64231106035120
    Total Energy =                       -173.6423110603512043
  @DF-RHF Final Energy:  -173.64618336399252
    Total Energy =                       -173.6461833639925203
  @DF-RHF Final Energy:  -173.64536538457341
    Total Energy =                       -173.6453653845734095
  @DF-RHF Final Energy:  -173.64575195602916
    Total Energy =                       -173.6457519560291587
  Charge       = 1
  Multiplicity = 1
  Basis Set: 6-31G*
    Blend: 6-31G*
  Basis Set: (6-31G* AUX)
    Blend: CC-PVDZ-JKFIT

    Orbital Energies [Eh]
    ---------------------

    Doubly Occupied:

       1A    -15.887858     2A    -11.467488     3A    -11.467240
       4A    -11.466921     5A     -1.515147     6A     -1.184858
       7A     -1.183113     8A     -1.087569     9A     -0.936893
      10A     -0.864154    11A     -0.861977    12A     -0.779503
      13A     -0.779011    14A     -0.742762    15A     -0.739426
      16A     -0.736114    17A     -0.735164

  @DF-RHF Final Energy:  -173.64578370695168

   => Energetics <=

    Nuclear Repulsion Energy =            146.0330411940747410
    One-Electron Energy =                -514.4872547383209849
    Two-Electron Energy =                 194.8084298372945966
    Total Energy =                       -173.6457837069516756

  Dipole Moment: [D]
     X:     0.1619      Y:     0.3742      Z:    -0.7642     Total:     0.8661

  Basis Set: (6-31G* AUX)
    Blend: CC-PVDZ-RI
    Molecular point group: c1
  Basis Set: 6-31G*
    Blend: 6-31G*
  Basis Set: (6-31G* AUX)
    Blend: CC-PVDZ-JKFIT
  Basis Set: (6-31G* AUX)
    Blend: CC-PVDZ-JKFIT
	 Reference Energy          =    -173.6457837069516756 [Eh]
	 Singles Energy            =      -0.0000000000000000 [Eh]
	 Same-Spin Energy          =      -0.1322959065060575 [Eh]
	 Opposite-Spin Energy      =      -0.4407915063369351 [Eh]
	 Correlation Energy        =      -0.5730874128429927 [Eh]
	 Total Energy              =    -174.2188711197946702 [Eh]

	 ================> DF-SCS-MP2 Energies <==================
	-----------------------------------------------------------
	 SCS Same-Spin Scale       =       0.3333333333333333 [-]
	 SCS Opposite-Spin Scale   =       1.2000000000000000 [-]
	 SCS Same-Spin Energy      =      -0.0440986355020192 [Eh]
	 SCS Opposite-Spin Energy  =      -0.5289498076043222 [Eh]
	 SCS Correlation Energy    =      -0.5730484431063414 [Eh]
	 SCS Total Energy          =    -174.2188321500580059 [Eh]
	-----------------------------------------------------------

  -Total Gradient:
     Atom            X                  Y                   Z
    ------   -----------------  -----------------  -----------------
       1       -0.000839813836    -0.004695474665     0.005013390215
       2        0.001135612781     0.004193992779    -0.003585472058
       3       -0.000436571592     0.000190610608    -0.001005728426
       4        0.002196901926     0.003910942197    -0.004343646709
       5       -0.000009226904     0.000047814853    -0.000055040483
       6       -0.000312434363    -0.001333856125     0.001016859723
       7        0.000011039043     0.000032453133     0.000026234867
       8       -0.000131251540     0.000100214817    -0.000178574052
       9        0.000021047139    -0.000009183809     0.000016003453
      10       -0.001582983771    -0.002372889542     0.002948560181
      11       -0.000001493545    -0.000035389253     0.000028005083
      12       -0.000048201913     0.000008825125     0.000026733392
      13        0.000005275664    -0.000008325218     0.000073771576
      14       -0.000007899088    -0.000029734901     0.000018903239

  **** Optimization is complete! (in 11 steps) ****
    Final optimized geometry and variables:
    Molecular point group: c1

    Geometry (in Angstrom), charge = 1, multiplicity = 1:

    N            0.046432598034     0.136604734547    -0.285468151044
    C           -0.967001984074     0.982373863589     0.427372781520
    C           -0.459446779707    -1.247387487337    -0.560131928711
    C            1.379293623597     0.127419817918     0.422134070166
    H            0.194303667274     0.579704341679    -1.200942811016
    H           -1.931533271312     0.867339882238    -0.065141681961
    H           -0.638072067998     2.020077880281     0.402206291166
    H            0.313568035832    -1.802372227766    -1.090509022346
    H           -1.359665543496    -1.178186648538    -1.169294685991
    H            1.422814257421     0.966636171424     1.113804108647
    H            1.454322170162    -0.797796501877     0.992842939887
    H            2.180086837261     0.176977473421    -0.313228423428
    H           -1.036779424363     0.631495046853     1.457092709859
    H           -0.682727265968    -1.723603573770     0.394027422843

*** Psi4 exiting successfully. Buy a developer a beer!
