                               Psi4 1.3.2 release

  ==> Input File <==

--------------------------------------------------------------------------
molecule {
1 1
N 0.046432598034 0.136604734547 -0.285468151044
C -0.967001984074 0.982373863589 0.427372781520
C -0.459446779707 -1.247387487337 -0.560131928711
C 1.379293623597 0.127419817918 0.422134070166
H 0.194303667274 0.579704341679 -1.200942811016
H -1.931533271312 0.867339882238 -0.065141681961
H -0.638072067998 2.020077880281 0.402206291166
H 0.313568035832 -1.802372227766 -1.090509022346
H -1.359665543496 -1.178186648538 -1.169294685991
H 1.422814257421 0.966636171424 1.113804108647
H 1.454322170162 -0.797796501877 0.992842939887
H 2.180086837261 0.176977473421 -0.313228423428
H -1.036779424363 0.631495046853 1.457092709859
H -0.682727265968 -1.723603573770 0.394027422843
}
memory 8.333333333333334GB
set_num_threads(1)
psi4_io.set_default_path("/scratch/bdw2292/Psi4-40_Index_0-farH_in17")
set freeze_core True
set PROPERTIES_ORIGIN ["COM"]
set cubeprop_tasks ['esp']
E, wfn = properties('mp2/6-311G**',properties=['dipole'],return_wfn=True)
cubeprop(wfn)
fchk(wfn, "40_Index_0-dma.fchk")
clean()
--------------------------------------------------------------------------

    Molecular point group: c1
  Charge       = 1
  Multiplicity = 1
  Basis Set: 6-311G**
    Blend: 6-311G**
  Basis Set: (6-311G** AUX)
    Blend: CC-PVTZ-JKFIT

    Orbital Energies [Eh]
    ---------------------

    Doubly Occupied:

       1A    -15.878803     2A    -11.465099     3A    -11.464856
       4A    -11.464682     5A     -1.511350     6A     -1.182395
       7A     -1.180687     8A     -1.085276     9A     -0.933887
      10A     -0.861572    11A     -0.859487    12A     -0.777340
      13A     -0.776698    14A     -0.740983    15A     -0.737715
      16A     -0.734157    17A     -0.733332

  @DF-RHF Final Energy:  -173.69557591174217

   => Energetics <=

    Nuclear Repulsion Energy =            146.0330411940809938
    One-Electron Energy =                -514.6805943651597772
    Two-Electron Energy =                 194.9519772593366440
    Total Energy =                       -173.6955759117421678
  Basis Set: (6-311G** AUX)
    Blend: CC-PVTZ-RI
    Molecular point group: c1

    Geometry (in Angstrom), charge = 1, multiplicity = 1:

       Center              X                  Y                   Z               Mass
    ------------   -----------------  -----------------  -----------------  -----------------
         N            0.046432598034     0.136604734547    -0.285468151044    14.003074004430
         C           -0.967001984074     0.982373863589     0.427372781520    12.000000000000
         C           -0.459446779707    -1.247387487337    -0.560131928711    12.000000000000
         C            1.379293623597     0.127419817918     0.422134070166    12.000000000000
         H            0.194303667274     0.579704341679    -1.200942811016     1.007825032230
         H           -1.931533271312     0.867339882238    -0.065141681961     1.007825032230
         H           -0.638072067998     2.020077880281     0.402206291166     1.007825032230
         H            0.313568035832    -1.802372227766    -1.090509022346     1.007825032230
         H           -1.359665543496    -1.178186648538    -1.169294685991     1.007825032230
         H            1.422814257421     0.966636171424     1.113804108647     1.007825032230
         H            1.454322170162    -0.797796501877     0.992842939887     1.007825032230
         H            2.180086837261     0.176977473421    -0.313228423428     1.007825032230
         H           -1.036779424363     0.631495046853     1.457092709859     1.007825032230
         H           -0.682727265968    -1.723603573770     0.394027422843     1.007825032230

  Basis Set: 6-311G**
    Blend: 6-311G**
  Basis Set: (6-311G** AUX)
    Blend: CC-PVTZ-JKFIT
	 Reference Energy          =    -173.6955759117421678 [Eh]
	 Singles Energy            =      -0.0000000000000000 [Eh]
	 Same-Spin Energy          =      -0.1425169419964742 [Eh]
	 Opposite-Spin Energy      =      -0.4995197803124136 [Eh]
	 Correlation Energy        =      -0.6420367223088878 [Eh]
	 Total Energy              =    -174.3376126340510552 [Eh]

	 ================> DF-SCS-MP2 Energies <==================
	-----------------------------------------------------------
	 SCS Same-Spin Scale       =       0.3333333333333333 [-]
	 SCS Opposite-Spin Scale   =       1.2000000000000000 [-]
	 SCS Same-Spin Energy      =      -0.0475056473321581 [Eh]
	 SCS Opposite-Spin Energy  =      -0.5994237363748962 [Eh]
	 SCS Correlation Energy    =      -0.6469293837070542 [Eh]
	 SCS Total Energy          =    -174.3425052954492287 [Eh]
	-----------------------------------------------------------

  Dipole Moment: [D]
     X:     0.1510      Y:     0.3605      Z:    -0.7474     Total:     0.8435

  Basis Set: 6-311G**
    Blend: 6-311G**
*** Psi4 exiting successfully. Buy a developer a beer!
