                               Psi4 1.3.2 release

  ==> Input File <==

--------------------------------------------------------------------------
molecule {
1 1
N 0.046432598034 0.136604734547 -0.285468151044
C -0.967001984074 0.982373863589 0.427372781520
C -0.459446779707 -1.247387487337 -0.560131928711
C 1.379293623597 0.127419817918 0.422134070166
H 0.194303667274 0.579704341679 -1.200942811016
H -1.931533271312 0.867339882238 -0.065141681961
H -0.638072067998 2.020077880281 0.402206291166
H 0.313568035832 -1.802372227766 -1.090509022346
H -1.359665543496 -1.178186648538 -1.169294685991
H 1.422814257421 0.966636171424 1.113804108647
H 1.454322170162 -0.797796501877 0.992842939887
H 2.180086837261 0.176977473421 -0.313228423428
H -1.036779424363 0.631495046853 1.457092709859
H -0.682727265968 -1.723603573770 0.394027422843
}
memory 8.333333333333334GB
set_num_threads(1)
psi4_io.set_default_path("/scratch/bdw2292/Psi4-40_Index_0-farH_in17")
set maxiter 500
set freeze_core True
set PROPERTIES_ORIGIN ["COM"]
set cubeprop_tasks ['esp']
E, wfn = properties('mp2/aug-cc-pVTZ',properties=['dipole'],return_wfn=True)
cubeprop(wfn)
fchk(wfn, "40_Index_0-esp.fchk")
oeprop(wfn,"GRID_ESP","WIBERG_LOWDIN_INDICES","MULLIKEN_CHARGES")
clean()
--------------------------------------------------------------------------

    Molecular point group: c1
  Charge       = 1
  Multiplicity = 1
  Basis Set: AUG-CC-PVTZ
    Blend: AUG-CC-PVTZ
  Basis Set: (AUG-CC-PVTZ AUX)
    Blend: AUG-CC-PVTZ-JKFIT

    Orbital Energies [Eh]
    ---------------------

    Doubly Occupied:

       1A    -15.878701     2A    -11.463885     3A    -11.463632
       4A    -11.463230     5A     -1.508711     6A     -1.180712
       7A     -1.178920     8A     -1.083674     9A     -0.931957
      10A     -0.859948    11A     -0.857876    12A     -0.776467
      13A     -0.775746    14A     -0.739970    15A     -0.736603
      16A     -0.732845    17A     -0.732026

  @DF-RHF Final Energy:  -173.71431486048516

   => Energetics <=

    Nuclear Repulsion Energy =            146.0330411940809938
    One-Electron Energy =                -514.7649082639613880
    Two-Electron Energy =                 195.0175522093952623
    Total Energy =                       -173.7143148604851604
  Basis Set: (AUG-CC-PVTZ AUX)
    Blend: AUG-CC-PVTZ-RI
    Molecular point group: c1

    Geometry (in Angstrom), charge = 1, multiplicity = 1:

       Center              X                  Y                   Z               Mass
    ------------   -----------------  -----------------  -----------------  -----------------
         N            0.046432598034     0.136604734547    -0.285468151044    14.003074004430
         C           -0.967001984074     0.982373863589     0.427372781520    12.000000000000
         C           -0.459446779707    -1.247387487337    -0.560131928711    12.000000000000
         C            1.379293623597     0.127419817918     0.422134070166    12.000000000000
         H            0.194303667274     0.579704341679    -1.200942811016     1.007825032230
         H           -1.931533271312     0.867339882238    -0.065141681961     1.007825032230
         H           -0.638072067998     2.020077880281     0.402206291166     1.007825032230
         H            0.313568035832    -1.802372227766    -1.090509022346     1.007825032230
         H           -1.359665543496    -1.178186648538    -1.169294685991     1.007825032230
         H            1.422814257421     0.966636171424     1.113804108647     1.007825032230
         H            1.454322170162    -0.797796501877     0.992842939887     1.007825032230
         H            2.180086837261     0.176977473421    -0.313228423428     1.007825032230
         H           -1.036779424363     0.631495046853     1.457092709859     1.007825032230
         H           -0.682727265968    -1.723603573770     0.394027422843     1.007825032230

  Basis Set: AUG-CC-PVTZ
    Blend: AUG-CC-PVTZ
  Basis Set: (AUG-CC-PVTZ AUX)
    Blend: AUG-CC-PVTZ-JKFIT
	 Reference Energy          =    -173.7143148604851604 [Eh]
	 Singles Energy            =      -0.0000000000000000 [Eh]
	 Same-Spin Energy          =      -0.1617373279685571 [Eh]
	 Opposite-Spin Energy      =      -0.5933547095281533 [Eh]
	 Correlation Energy        =      -0.7550920374967104 [Eh]
	 Total Energy              =    -174.4694068979818837 [Eh]

	 ================> DF-SCS-MP2 Energies <==================
	-----------------------------------------------------------
	 SCS Same-Spin Scale       =       0.3333333333333333 [-]
	 SCS Opposite-Spin Scale   =       1.2000000000000000 [-]
	 SCS Same-Spin Energy      =      -0.0539124426561857 [Eh]
	 SCS Opposite-Spin Energy  =      -0.7120256514337839 [Eh]
	 SCS Correlation Energy    =      -0.7659380940899696 [Eh]
	 SCS Total Energy          =    -174.4802529545751213 [Eh]
	-----------------------------------------------------------

  Dipole Moment: [D]
     X:     0.1257      Y:     0.3398      Z:    -0.7183     Total:     0.8045

  Basis Set: AUG-CC-PVTZ
    Blend: AUG-CC-PVTZ

  Mulliken Charges: (a.u.)
   Center  Symbol    Alpha    Beta     Spin     Total
       1     N     3.26527  3.26527  0.00000  0.46947
       2     C     3.48013  3.48013  0.00000 -0.96025
       3     C     3.47170  3.47170  0.00000 -0.94341
       4     C     3.47114  3.47114  0.00000 -0.94227
       5     H     0.47585  0.47585  0.00000  0.04830
       6     H     0.32533  0.32533  0.00000  0.34934
       7     H     0.30441  0.30441  0.00000  0.39117
       8     H     0.31818  0.31818  0.00000  0.36365
       9     H     0.31471  0.31471  0.00000  0.37057
      10     H     0.31988  0.31988  0.00000  0.36023
      11     H     0.31948  0.31948  0.00000  0.36104
      12     H     0.30699  0.30699  0.00000  0.38601
      13     H     0.31402  0.31402  0.00000  0.37197
      14     H     0.31291  0.31291  0.00000  0.37419

   Total alpha = 17.00000, Total beta = 17.00000, Total charge =  1.00000

*** Psi4 exiting successfully. Buy a developer a beer!
