                               Psi4 1.3.2 release

  ==> Input File <==

--------------------------------------------------------------------------
molecule {
1 1
N         -9.11910        0.13520       -0.32450
C         -8.43350        0.34930        0.92000
C         -8.40430        0.70480       -1.44640
C        -10.41830        0.77560       -0.26350
H         -9.27360       -0.88310       -0.48290
H         -8.57130        1.39150        1.26690
H         -8.93000       -0.30450        1.67690
H         -9.00400        0.50740       -2.35550
H         -8.32050        1.78780       -1.34090
H        -10.70810        1.13950       -1.27760
H        -11.15320        0.04900        0.16190
H        -10.30880        1.64690        0.44570
H         -7.39100        0.14310        0.79530
H         -7.42550        0.27570       -1.49800
}
memory 100GB
set_num_threads(12)
psi4_io.set_default_path("/scratch/bdw2292/Psi4-farH_in17")
set maxiter 500
set freeze_core True
set PROPERTIES_ORIGIN ["COM"]
set cubeprop_tasks ['esp']
E, wfn = properties('hf/MINIX',properties=['dipole'],return_wfn=True)
cubeprop(wfn)
fchk(wfn, "farH_in17-esp_frag.fchk")
oeprop(wfn,"WIBERG_LOWDIN_INDICES","MULLIKEN_CHARGES")
clean()
--------------------------------------------------------------------------

    Molecular point group: c1

    Geometry (in Angstrom), charge = 1, multiplicity = 1:

       Center              X                  Y                   Z               Mass
    ------------   -----------------  -----------------  -----------------  -----------------
         N           -0.021973910249    -0.358263413058    -0.047352201577    14.003074004430
         C            0.663626089751    -0.144163413058     1.197147798423    12.000000000000
         C            0.692826089751     0.211336586942    -1.169252201577    12.000000000000
         C           -1.321173910249     0.282136586942     0.013647798423    12.000000000000
         H           -0.176473910249    -1.376563413058    -0.205752201577     1.007825032230
         H            0.525826089751     0.898036586942     1.544047798423     1.007825032230
         H            0.167126089751    -0.797963413058     1.954047798423     1.007825032230
         H            0.093126089751     0.013936586942    -2.078352201577     1.007825032230
         H            0.776626089751     1.294336586942    -1.063752201577     1.007825032230
         H           -1.610973910249     0.646036586942    -1.000452201577     1.007825032230
         H           -2.056073910249    -0.444463413058     0.439047798423     1.007825032230
         H           -1.211673910249     1.153436586942     0.722847798423     1.007825032230
         H            1.706126089751    -0.350363413058     1.072447798423     1.007825032230
         H            1.671626089751    -0.217763413058    -1.220852201577     1.007825032230

  Charge       = 1
  Multiplicity = 1
  Basis Set: MINIX
    Blend: MINIX
  Basis Set: (MINIX AUX)
    Blend: DEF2-SVP-JKFIT

    Orbital Energies [Eh]
    ---------------------

    Doubly Occupied:

       1A    -15.827727     2A    -11.436375     3A    -11.435413
       4A    -11.430847     5A     -1.595416     6A     -1.231588
       7A     -1.216434     8A     -1.117789     9A     -0.974337
      10A     -0.907085    11A     -0.899775    12A     -0.810657
      13A     -0.797748    14A     -0.761320    15A     -0.756642
      16A     -0.749626    17A     -0.741535

  @DF-RHF Final Energy:  -172.47274599245466

   => Energetics <=

    Nuclear Repulsion Energy =            150.1604875887827006
    One-Electron Energy =                -519.8858387373282994
    Two-Electron Energy =                 197.2526051560909366
    Total Energy =                       -172.4727459924546622

  Dipole Moment: [D]
     X:    -0.3332      Y:    -0.9753      Z:    -0.1113     Total:     1.0366

  Basis Set: MINIX
    Blend: MINIX

  Mulliken Charges: (a.u.)
   Center  Symbol    Alpha    Beta     Spin     Total
       1     N     3.66659  3.66659  0.00000 -0.33319
       2     C     3.11837  3.11837  0.00000 -0.23674
       3     C     3.11978  3.11978  0.00000 -0.23956
       4     C     3.11260  3.11260  0.00000 -0.22520
       5     H     0.31952  0.31952  0.00000  0.36095
       6     H     0.40686  0.40686  0.00000  0.18627
       7     H     0.40609  0.40609  0.00000  0.18782
       8     H     0.40703  0.40703  0.00000  0.18594
       9     H     0.40510  0.40510  0.00000  0.18981
      10     H     0.40703  0.40703  0.00000  0.18593
      11     H     0.40745  0.40745  0.00000  0.18510
      12     H     0.40931  0.40931  0.00000  0.18138
      13     H     0.40697  0.40697  0.00000  0.18607
      14     H     0.40729  0.40729  0.00000  0.18541

   Total alpha = 17.00000, Total beta = 17.00000, Total charge =  1.00000

*** Psi4 exiting successfully. Buy a developer a beer!
