                               Psi4 1.3.2 release

  ==> Input File <==

--------------------------------------------------------------------------
molecule {
0 1
 C    0.100500   -0.578200    0.278200
 N    1.276000    0.191600    0.424200
 C   -1.018000    0.297000   -0.208400
 H   -0.195400   -0.950800    1.289800
 H    0.280600   -1.467700   -0.341800
 H   -1.883800   -0.263300   -0.587600
 H   -0.697300    1.017000   -1.001500
 H    2.123400   -0.278100    0.714600
 H    1.334500    1.083500   -0.039400
 H   -1.320600    0.949100    0.656200
}
set {
  geom_maxiter 400
  g_convergence GAU
  dynamic_level 1
}
set optking {
  frozen_dihedral = ("
    2 1 3 6
, 8 2 1 3
  ")
}
memory 8.333333333333334GB
set_num_threads(1)
psi4_io.set_default_path("/scratch/bdw2292/Psi4-28_Index_0-farH_in17")
for _ in range(1):
  try:
    set opt_coordinates both
    optimize('mp2/6-31G*')
    break
  except OptimizationConvergenceError:
    break
  else:
    try:
      set opt_coordinates cartesian
      optimize('mp2/6-31G*')
      break
    except OptimizationConvergenceError:
      pass
clean()
--------------------------------------------------------------------------

    Molecular point group: c1
  Charge       = 0
  Multiplicity = 1
  Basis Set: 6-31G*
    Blend: 6-31G*
  Basis Set: (6-31G* AUX)
    Blend: CC-PVDZ-JKFIT
  @DF-RHF Final Energy:  -134.23153094808777
    Total Energy =                       -134.2315309480877659
  Basis Set: (6-31G* AUX)
    Blend: CC-PVDZ-RI
    Molecular point group: c1
  Basis Set: 6-31G*
    Blend: 6-31G*
  Basis Set: (6-31G* AUX)
    Blend: CC-PVDZ-JKFIT
  Basis Set: (6-31G* AUX)
    Blend: CC-PVDZ-JKFIT
	 Reference Energy          =    -134.2315309480877659 [Eh]
	 Singles Energy            =      -0.0000000000000000 [Eh]
	 Same-Spin Energy          =      -0.1038897605028170 [Eh]
	 Opposite-Spin Energy      =      -0.3368463829774124 [Eh]
	 Correlation Energy        =      -0.4407361434802294 [Eh]
	 Total Energy              =    -134.6722670915679885 [Eh]
	 SCS Total Energy          =    -134.6703765278282674 [Eh]
  @DF-RHF Final Energy:  -134.23854577321407
    Total Energy =                       -134.2385457732140708
  @DF-RHF Final Energy:  -134.24178320530919
    Total Energy =                       -134.2417832053091900
  @DF-RHF Final Energy:  -133.67623521821656
    Total Energy =                       -133.6762352182165614
  @DF-RHF Final Energy:  -133.83875481978652
    Total Energy =                       -133.8387548197865158
  @DF-RHF Final Energy:  -132.70830559176773
    Total Energy =                       -132.7083055917677257
  @DF-RHF Final Energy:  -133.83875481975409
    Total Energy =                       -133.8387548197540866
  @DF-RHF Final Energy:  -133.90243909597544
    Total Energy =                       -133.9024390959754385
  @DF-RHF Final Energy:  -133.96372639092098
    Total Energy =                       -133.9637263909209821
  @DF-RHF Final Energy:  -134.02168231039025
    Total Energy =                       -134.0216823103902470
  @DF-RHF Final Energy:  -134.07533217926243
    Total Energy =                       -134.0753321792624320
  @DF-RHF Final Energy:  -134.12360154568535
    Total Energy =                       -134.1236015456853465
  @DF-RHF Final Energy:  -134.16534286574415
    Total Energy =                       -134.1653428657441509
  @DF-RHF Final Energy:  -134.19936795841772
    Total Energy =                       -134.1993679584177244
  @DF-RHF Final Energy:  -134.22449416810119
    Total Energy =                       -134.2244941681011881
  @DF-RHF Final Energy:  -134.23962860815706
    Total Energy =                       -134.2396286081570622
  @DF-RHF Final Energy:  -134.24500545247568
    Total Energy =                       -134.2450054524756808
  @DF-RHF Final Energy:  -134.24571056075061
    Total Energy =                       -134.2457105607506378
  @DF-RHF Final Energy:  -134.24529489117188
    Total Energy =                       -134.2452948911718806
  @DF-RHF Final Energy:  -134.24568125652297
    Total Energy =                       -134.2456812565229711
  @DF-RHF Final Energy:  -134.24580664532175
    Total Energy =                       -134.2458066453217498
  Charge       = 0
  Multiplicity = 1
  Basis Set: 6-31G*
    Blend: 6-31G*
  Basis Set: (6-31G* AUX)
    Blend: CC-PVDZ-JKFIT

    Orbital Energies [Eh]
    ---------------------

    Doubly Occupied:

       1A    -15.539169     2A    -11.246277     3A    -11.210981
       4A     -1.172348     5A     -0.985223     6A     -0.820743
       7A     -0.655644     8A     -0.629240     9A     -0.575123
      10A     -0.517287    11A     -0.503861    12A     -0.488606
      13A     -0.385513

  @DF-RHF Final Energy:  -134.24574176836887

   => Energetics <=

    Nuclear Repulsion Energy =             82.9922830297826550
    One-Electron Energy =                -345.0160221659121476
    Two-Electron Energy =                 127.7779973677606336
    Total Energy =                       -134.2457417683688732

  Dipole Moment: [D]
     X:    -0.5866      Y:    -1.2033      Z:    -0.7633     Total:     1.5410

  Basis Set: (6-31G* AUX)
    Blend: CC-PVDZ-RI
    Molecular point group: c1
  Basis Set: 6-31G*
    Blend: 6-31G*
  Basis Set: (6-31G* AUX)
    Blend: CC-PVDZ-JKFIT
  Basis Set: (6-31G* AUX)
    Blend: CC-PVDZ-JKFIT
	 Reference Energy          =    -134.2457417683688732 [Eh]
	 Singles Energy            =      -0.0000000000000000 [Eh]
	 Same-Spin Energy          =      -0.1033824434442525 [Eh]
	 Opposite-Spin Energy      =      -0.3373506917504112 [Eh]
	 Correlation Energy        =      -0.4407331351946637 [Eh]
	 Total Energy              =    -134.6864749035635498 [Eh]

	 ================> DF-SCS-MP2 Energies <==================
	-----------------------------------------------------------
	 SCS Same-Spin Scale       =       0.3333333333333333 [-]
	 SCS Opposite-Spin Scale   =       1.2000000000000000 [-]
	 SCS Same-Spin Energy      =      -0.0344608144814175 [Eh]
	 SCS Opposite-Spin Energy  =      -0.4048208301004934 [Eh]
	 SCS Correlation Energy    =      -0.4392816445819109 [Eh]
	 SCS Total Energy          =    -134.6850234129507839 [Eh]
	-----------------------------------------------------------

  -Total Gradient:
     Atom            X                  Y                   Z
    ------   -----------------  -----------------  -----------------
       1        0.000244677012     0.001605847306     0.002672980142
       2        0.000032651214    -0.000874901322    -0.001459269625
       3       -0.001237711192     0.001217206599     0.002546144607
       4        0.000003599233     0.000002531785     0.000027714816
       5       -0.000039779537    -0.000023724151    -0.000007344422
       6        0.000979249031    -0.001570592571    -0.002998731977
       7        0.000040370035     0.000007834574    -0.000056179730
       8        0.000012620119    -0.000417167067    -0.000777153476
       9       -0.000033554926     0.000004375264     0.000011846257
      10       -0.000002120991     0.000048589584     0.000039993409

  **** Optimization is complete! (in 16 steps) ****
    Final optimized geometry and variables:
    Molecular point group: c1

    Geometry (in Angstrom), charge = 0, multiplicity = 1:

    C           -0.419192888017    -0.337527164871     0.209992577159
    N            1.021936093746    -0.557850489588     0.363466244025
    C           -0.662929911724     0.961994774102    -0.542983941290
    H           -0.860746778379    -0.282166291817     1.209555051244
    H           -0.931101874619    -1.159631777980    -0.316819418822
    H           -1.695095628955     1.025306546641    -0.897355328721
    H           -0.023224143639     1.003764874456    -1.430900611472
    H            1.187162143772    -1.445820327089     0.835134206808
    H            1.438047963933    -0.654991824094    -0.561736772590
    H           -0.429528928667     1.829080057713     0.076866694509

*** Psi4 exiting successfully. Buy a developer a beer!
