                               Psi4 1.3.2 release

  ==> Input File <==

--------------------------------------------------------------------------
molecule {
0 1
C -0.419192888017 -0.337527164871 0.209992577159
N 1.021936093746 -0.557850489588 0.363466244025
C -0.662929911724 0.961994774102 -0.542983941290
H -0.860746778379 -0.282166291817 1.209555051244
H -0.931101874619 -1.159631777980 -0.316819418822
H -1.695095628955 1.025306546641 -0.897355328721
H -0.023224143639 1.003764874456 -1.430900611472
H 1.187162143772 -1.445820327089 0.835134206808
H 1.438047963933 -0.654991824094 -0.561736772590
H -0.429528928667 1.829080057713 0.076866694509
}
memory 8.333333333333334GB
set_num_threads(1)
psi4_io.set_default_path("/scratch/bdw2292/Psi4-28_Index_0-farH_in17")
set freeze_core True
set PROPERTIES_ORIGIN ["COM"]
set cubeprop_tasks ['esp']
E, wfn = properties('mp2/6-311G**',properties=['dipole'],return_wfn=True)
cubeprop(wfn)
fchk(wfn, "28_Index_0-dma.fchk")
clean()
--------------------------------------------------------------------------

    Molecular point group: c1
  Charge       = 0
  Multiplicity = 1
  Basis Set: 6-311G**
    Blend: 6-311G**
  Basis Set: (6-311G** AUX)
    Blend: CC-PVTZ-JKFIT

    Orbital Energies [Eh]
    ---------------------

    Doubly Occupied:

       1A    -15.530209     2A    -11.245367     3A    -11.210295
       4A     -1.172212     5A     -0.985162     6A     -0.820608
       7A     -0.655251     8A     -0.629314     9A     -0.574968
      10A     -0.517207    11A     -0.503771    12A     -0.488273
      13A     -0.387531

  @DF-RHF Final Energy:  -134.28776452802188

   => Energetics <=

    Nuclear Repulsion Energy =             82.9922830297827687
    One-Electron Energy =                -345.1197548200967162
    Two-Electron Energy =                 127.8397072622920803
    Total Energy =                       -134.2877645280218815
  Basis Set: (6-311G** AUX)
    Blend: CC-PVTZ-RI
    Molecular point group: c1

    Geometry (in Angstrom), charge = 0, multiplicity = 1:

       Center              X                  Y                   Z               Mass
    ------------   -----------------  -----------------  -----------------  -----------------
         C           -0.419192888017    -0.337527164871     0.209992577159    12.000000000000
         N            1.021936093746    -0.557850489588     0.363466244025    14.003074004430
         C           -0.662929911724     0.961994774102    -0.542983941290    12.000000000000
         H           -0.860746778379    -0.282166291817     1.209555051244     1.007825032230
         H           -0.931101874619    -1.159631777980    -0.316819418822     1.007825032230
         H           -1.695095628955     1.025306546641    -0.897355328721     1.007825032230
         H           -0.023224143639     1.003764874456    -1.430900611472     1.007825032230
         H            1.187162143772    -1.445820327089     0.835134206808     1.007825032230
         H            1.438047963933    -0.654991824094    -0.561736772590     1.007825032230
         H           -0.429528928667     1.829080057713     0.076866694509     1.007825032230

  Basis Set: 6-311G**
    Blend: 6-311G**
  Basis Set: (6-311G** AUX)
    Blend: CC-PVTZ-JKFIT
	 Reference Energy          =    -134.2877645280218815 [Eh]
	 Singles Energy            =      -0.0000000000000000 [Eh]
	 Same-Spin Energy          =      -0.1131708945436358 [Eh]
	 Opposite-Spin Energy      =      -0.3835689322647009 [Eh]
	 Correlation Energy        =      -0.4967398268083367 [Eh]
	 Total Energy              =    -134.7845043548302044 [Eh]

	 ================> DF-SCS-MP2 Energies <==================
	-----------------------------------------------------------
	 SCS Same-Spin Scale       =       0.3333333333333333 [-]
	 SCS Opposite-Spin Scale   =       1.2000000000000000 [-]
	 SCS Same-Spin Energy      =      -0.0377236315145453 [Eh]
	 SCS Opposite-Spin Energy  =      -0.4602827187176410 [Eh]
	 SCS Correlation Energy    =      -0.4980063502321863 [Eh]
	 SCS Total Energy          =    -134.7857708782540556 [Eh]
	-----------------------------------------------------------

  Dipole Moment: [D]
     X:    -0.4653      Y:    -1.1208      Z:    -0.6683     Total:     1.3854

  Basis Set: 6-311G**
    Blend: 6-311G**
*** Psi4 exiting successfully. Buy a developer a beer!
