                               Psi4 1.3.2 release

  ==> Input File <==

--------------------------------------------------------------------------
molecule {
0 1
C -0.419192888017 -0.337527164871 0.209992577159
N 1.021936093746 -0.557850489588 0.363466244025
C -0.662929911724 0.961994774102 -0.542983941290
H -0.860746778379 -0.282166291817 1.209555051244
H -0.931101874619 -1.159631777980 -0.316819418822
H -1.695095628955 1.025306546641 -0.897355328721
H -0.023224143639 1.003764874456 -1.430900611472
H 1.187162143772 -1.445820327089 0.835134206808
H 1.438047963933 -0.654991824094 -0.561736772590
H -0.429528928667 1.829080057713 0.076866694509
}
memory 8.333333333333334GB
set_num_threads(1)
psi4_io.set_default_path("/scratch/bdw2292/Psi4-28_Index_0-farH_in17")
set maxiter 500
set freeze_core True
set PROPERTIES_ORIGIN ["COM"]
set cubeprop_tasks ['esp']
E, wfn = properties('mp2/aug-cc-pVTZ',properties=['dipole'],return_wfn=True)
cubeprop(wfn)
fchk(wfn, "28_Index_0-esp.fchk")
oeprop(wfn,"GRID_ESP","WIBERG_LOWDIN_INDICES","MULLIKEN_CHARGES")
clean()
--------------------------------------------------------------------------

    Molecular point group: c1
  Charge       = 0
  Multiplicity = 1
  Basis Set: AUG-CC-PVTZ
    Blend: AUG-CC-PVTZ
  Basis Set: (AUG-CC-PVTZ AUX)
    Blend: AUG-CC-PVTZ-JKFIT

    Orbital Energies [Eh]
    ---------------------

    Doubly Occupied:

       1A    -15.539593     2A    -11.246965     3A    -11.210837
       4A     -1.175565     5A     -0.986272     6A     -0.821845
       7A     -0.658076     8A     -0.631248     9A     -0.576839
      10A     -0.518448    11A     -0.505434    12A     -0.489561
      13A     -0.390939

  @DF-RHF Final Energy:  -134.30490543558545

   => Energetics <=

    Nuclear Repulsion Energy =             82.9922830297827687
    One-Electron Energy =                -345.0911390341037190
    Two-Electron Energy =                 127.7939505687355251
    Total Energy =                       -134.3049054355854537
  Basis Set: (AUG-CC-PVTZ AUX)
    Blend: AUG-CC-PVTZ-RI
    Molecular point group: c1

    Geometry (in Angstrom), charge = 0, multiplicity = 1:

       Center              X                  Y                   Z               Mass
    ------------   -----------------  -----------------  -----------------  -----------------
         C           -0.419192888017    -0.337527164871     0.209992577159    12.000000000000
         N            1.021936093746    -0.557850489588     0.363466244025    14.003074004430
         C           -0.662929911724     0.961994774102    -0.542983941290    12.000000000000
         H           -0.860746778379    -0.282166291817     1.209555051244     1.007825032230
         H           -0.931101874619    -1.159631777980    -0.316819418822     1.007825032230
         H           -1.695095628955     1.025306546641    -0.897355328721     1.007825032230
         H           -0.023224143639     1.003764874456    -1.430900611472     1.007825032230
         H            1.187162143772    -1.445820327089     0.835134206808     1.007825032230
         H            1.438047963933    -0.654991824094    -0.561736772590     1.007825032230
         H           -0.429528928667     1.829080057713     0.076866694509     1.007825032230

  Basis Set: AUG-CC-PVTZ
    Blend: AUG-CC-PVTZ
  Basis Set: (AUG-CC-PVTZ AUX)
    Blend: AUG-CC-PVTZ-JKFIT
	 Reference Energy          =    -134.3049054355854537 [Eh]
	 Singles Energy            =      -0.0000000000000000 [Eh]
	 Same-Spin Energy          =      -0.1297995738644896 [Eh]
	 Opposite-Spin Energy      =      -0.4590339576567738 [Eh]
	 Correlation Energy        =      -0.5888335315212634 [Eh]
	 Total Energy              =    -134.8937389671067137 [Eh]

	 ================> DF-SCS-MP2 Energies <==================
	-----------------------------------------------------------
	 SCS Same-Spin Scale       =       0.3333333333333333 [-]
	 SCS Opposite-Spin Scale   =       1.2000000000000000 [-]
	 SCS Same-Spin Energy      =      -0.0432665246214965 [Eh]
	 SCS Opposite-Spin Energy  =      -0.5508407491881285 [Eh]
	 SCS Correlation Energy    =      -0.5941072738096251 [Eh]
	 SCS Total Energy          =    -134.8990127093950662 [Eh]
	-----------------------------------------------------------

  Dipole Moment: [D]
     X:    -0.5901      Y:    -1.0355      Z:    -0.6655     Total:     1.3651

  Basis Set: AUG-CC-PVTZ
    Blend: AUG-CC-PVTZ

  Mulliken Charges: (a.u.)
   Center  Symbol    Alpha    Beta     Spin     Total
       1     C     3.11424  3.11424  0.00000 -0.22848
       2     N     3.77605  3.77605  0.00000 -0.55211
       3     C     3.49670  3.49670  0.00000 -0.99340
       4     H     0.33754  0.33754  0.00000  0.32492
       5     H     0.35841  0.35841  0.00000  0.28317
       6     H     0.34219  0.34219  0.00000  0.31563
       7     H     0.35164  0.35164  0.00000  0.29672
       8     H     0.44190  0.44190  0.00000  0.11619
       9     H     0.43081  0.43081  0.00000  0.13837
      10     H     0.35051  0.35051  0.00000  0.29899

   Total alpha = 13.00000, Total beta = 13.00000, Total charge = -0.00000

*** Psi4 exiting successfully. Buy a developer a beer!
