                               Psi4 1.3.2 release

  ==> Input File <==

--------------------------------------------------------------------------
molecule {
0 1
C         -6.95280        0.08910        0.82430
N         -6.53810       -0.48150       -0.39510
C         -8.43350        0.34930        0.92000
H         -6.37020        1.01670        1.06340
H         -6.70880       -0.63220        1.65040
H         -8.57130        1.39150        1.26690
H         -8.93000       -0.30450        1.67690
H         -6.75100        0.15890       -1.15990
H         -7.02990       -1.36290       -0.54270
H         -8.86250        0.15940       -0.04170
}
memory 100GB
set_num_threads(12)
psi4_io.set_default_path("/scratch/bdw2292/Psi4-farH_in17")
set maxiter 500
set freeze_core True
set PROPERTIES_ORIGIN ["COM"]
set cubeprop_tasks ['esp']
E, wfn = properties('hf/MINIX',properties=['dipole'],return_wfn=True)
cubeprop(wfn)
fchk(wfn, "farH_in17-esp_frag.fchk")
oeprop(wfn,"WIBERG_LOWDIN_INDICES","MULLIKEN_CHARGES")
clean()
--------------------------------------------------------------------------

    Molecular point group: c1

    Geometry (in Angstrom), charge = 0, multiplicity = 1:

       Center              X                  Y                   Z               Mass
    ------------   -----------------  -----------------  -----------------  -----------------
         C            0.367329144033     0.112435326582     0.395009488136    12.000000000000
         N            0.782029144033    -0.458164673418    -0.824390511864    14.003074004430
         C           -1.113370855967     0.372635326582     0.490709488136    12.000000000000
         H            0.949929144033     1.040035326582     0.634109488136     1.007825032230
         H            0.611329144033    -0.608864673418     1.221109488136     1.007825032230
         H           -1.251170855967     1.414835326582     0.837609488136     1.007825032230
         H           -1.609870855967    -0.281164673418     1.247609488136     1.007825032230
         H            0.569129144033     0.182235326582    -1.589190511864     1.007825032230
         H            0.290229144033    -1.339564673418    -0.971990511864     1.007825032230
         H           -1.542370855967     0.182735326582    -0.470990511864     1.007825032230

  Charge       = 0
  Multiplicity = 1
  Basis Set: MINIX
    Blend: MINIX
  Basis Set: (MINIX AUX)
    Blend: DEF2-SVP-JKFIT

    Orbital Energies [Eh]
    ---------------------

    Doubly Occupied:

       1A    -15.353611     2A    -11.180631     3A    -11.138633
       4A     -1.180575     5A     -0.983597     6A     -0.814067
       7A     -0.666391     8A     -0.607940     9A     -0.565440
      10A     -0.558321    11A     -0.506333    12A     -0.454878
      13A     -0.357860

  @DF-RHF Final Energy:  -133.32652483171771

   => Energetics <=

    Nuclear Repulsion Energy =             84.0552621914849993
    One-Electron Energy =                -346.0270184585492643
    Two-Electron Energy =                 128.6452314353465738
    Total Energy =                       -133.3265248317177054

  Dipole Moment: [D]
     X:    -1.4727      Y:     0.1952      Z:    -0.0696     Total:     1.4872

  Basis Set: MINIX
    Blend: MINIX

  Mulliken Charges: (a.u.)
   Center  Symbol    Alpha    Beta     Spin     Total
       1     C     3.06906  3.06906  0.00000 -0.13812
       2     N     3.75025  3.75025  0.00000 -0.50050
       3     C     3.18901  3.18901  0.00000 -0.37802
       4     H     0.43709  0.43709  0.00000  0.12582
       5     H     0.43807  0.43807  0.00000  0.12386
       6     H     0.43784  0.43784  0.00000  0.12432
       7     H     0.43918  0.43918  0.00000  0.12165
       8     H     0.39945  0.39945  0.00000  0.20111
       9     H     0.39862  0.39862  0.00000  0.20275
      10     H     0.44144  0.44144  0.00000  0.11712

   Total alpha = 13.00000, Total beta = 13.00000, Total charge =  0.00000

*** Psi4 exiting successfully. Buy a developer a beer!
